
     Program PWSCF v.7.4 starts on  4Sep2025 at 11:26:50 

     This program is part of the open-source Quantum ESPRESSO suite
     for quantum simulation of materials; please cite
         "P. Giannozzi et al., J. Phys.:Condens. Matter 21 395502 (2009);
         "P. Giannozzi et al., J. Phys.:Condens. Matter 29 465901 (2017);
         "P. Giannozzi et al., J. Chem. Phys. 152 154105 (2020);
          URL http://www.quantum-espresso.org", 
     in publications or presentations arising from this work. More details at
     http://www.quantum-espresso.org/quote

     Parallel version (MPI & OpenMP), running on      64 processor cores
     Number of MPI processes:                 1
     Threads/MPI process:                    64

     MPI processes distributed on     1 nodes
     442114 MiB available memory on the printing compute node when the environment starts
 
     Reading input from qe_relax_pwscf5_2.in

     Current dimensions of program PWSCF are:
     Max number of different atomic species (ntypx) = 10
     Max number of k-points (npk) =  40000
     Max angular momentum in pseudopotentials (lmaxx) =  4
     Message from routine setup:
     using ibrav=0 with symmetry is DISCOURAGED, use correct ibrav instead
 
     Subspace diagonalization in iterative solution of the eigenvalue problem:
     a serial algorithm will be used

 
     G-vector sticks info
     --------------------
     sticks:   dense  smooth     PW     G-vecs:    dense   smooth      PW
     Sum         745     367    121               226877    80145   13861
 
     Using Slab Decomposition
 


     bravais-lattice index     =            0
     lattice parameter (alat)  =       4.7169  a.u.
     unit-cell volume          =    1274.4265 (a.u.)^3
     number of atoms/cell      =           16
     number of atomic types    =            3
     number of electrons       =       204.00
     number of Kohn-Sham states=          122
     kinetic-energy cutoff     =      60.0000  Ry
     charge density cutoff     =     480.0000  Ry
     scf convergence threshold =      3.0E-08
     mixing beta               =       0.1500
     number of iterations used =           12  local-TF  mixing
     energy convergence thresh.=      1.6E-04
     force convergence thresh. =      1.5E-03
     Exchange-correlation= SLA  PW   PSX  PSC
                           (   1   4  10   8   0   0   0)
     nstep                     =           50


     celldm(1)=   4.716921  celldm(2)=   0.000000  celldm(3)=   0.000000
     celldm(4)=   0.000000  celldm(5)=   0.000000  celldm(6)=   0.000000

     crystal axes: (cart. coord. in units of alat)
               a(1) = (   1.000000   0.000000   0.000000 )  
               a(2) = (  -0.500000   0.866026   0.000000 )  
               a(3) = (   0.000000   0.000000  14.021947 )  

     reciprocal axes: (cart. coord. in units 2 pi/alat)
               b(1) = (  1.000000  0.577350  0.000000 )  
               b(2) = (  0.000000  1.154700  0.000000 )  
               b(3) = (  0.000000  0.000000  0.071317 )  


     PseudoPot. # 1 for B  read from file:
     ./pseudo/b_pbesol_v1.4.uspp.F.UPF
     MD5 check sum: 369b69bef2c3aeed4453bd8b804fd6a8
     Pseudo is Ultrasoft + core correction, Zval =  3.0
     Generated by new atomic code, or converted to UPF format
     Using radial grid of  781 points,  4 beta functions with: 
                l(1) =   0
                l(2) =   0
                l(3) =   1
                l(4) =   1
     Q(r) pseudized with  8 coefficients,  rinner =    1.100   1.100   1.100


     PseudoPot. # 2 for N  read from file:
     ./pseudo/N.pbesol-theos.UPF
     MD5 check sum: 1b64827339d390a5a22afef3ff345c9d
     Pseudo is Ultrasoft + core correction, Zval =  5.0
     Generated using "atomic" code by A. Dal Corso  v.5.1
     Using radial grid of 1085 points,  4 beta functions with: 
                l(1) =   0
                l(2) =   0
                l(3) =   1
                l(4) =   1
     Q(r) pseudized with 0 coefficients 


     PseudoPot. # 3 for Ni read from file:
     ./pseudo/ni_pbesol_v1.4.uspp.F.UPF
     MD5 check sum: de937c0c8ae4b350e69c02b76d8a83cb
     Pseudo is Ultrasoft + core correction, Zval = 18.0
     Generated by new atomic code, or converted to UPF format
     Using radial grid of  865 points,  6 beta functions with: 
                l(1) =   0
                l(2) =   0
                l(3) =   1
                l(4) =   1
                l(5) =   2
                l(6) =   2
     Q(r) pseudized with 10 coefficients,  rinner =    0.980   0.980   0.980
                                                       0.980   0.980

     atomic species   valence    mass     pseudopotential
     B                 3.00    10.81100     B ( 1.00)
     N                 5.00    14.00670     N ( 1.00)
     Ni               18.00    58.69340     Ni( 1.00)

     Starting magnetic structure 
     atomic species   magnetization
     B               0.000
     N               0.000
     Ni              0.300

     12 Sym. Ops. (no inversion) found


                                    s                        frac. trans.

      isym =  1     identity                                     

 cryst.   s( 1) = (     1          0          0      )
                  (     0          1          0      )
                  (     0          0          1      )

 cart.    s( 1) = (  1.0000000  0.0000000  0.0000000 )
                  (  0.0000000  1.0000000  0.0000000 )
                  (  0.0000000  0.0000000  1.0000000 )


      isym =  2     180 deg rotation - cart. axis [0,1,0]        

 cryst.   s( 2) = (    -1          0          0      )
                  (     1          1          0      )
                  (     0          0         -1      )

 cart.    s( 2) = ( -1.0000000  0.0000005  0.0000000 )
                  (  0.0000000  1.0000000  0.0000000 )
                  (  0.0000000  0.0000000 -1.0000000 )


      isym =  3     120 deg rotation - cryst. axis [0,0,1]       

 cryst.   s( 3) = (     0          1          0      )
                  (    -1         -1          0      )
                  (     0          0          1      )

 cart.    s( 3) = ( -0.4999998 -0.8660253  0.0000000 )
                  (  0.8660255 -0.5000002  0.0000000 )
                  (  0.0000000  0.0000000  1.0000000 )


      isym =  4     120 deg rotation - cryst. axis [0,0,-1]      

 cryst.   s( 4) = (    -1         -1          0      )
                  (     1          0          0      )
                  (     0          0          1      )

 cart.    s( 4) = ( -0.5000002  0.8660253  0.0000000 )
                  ( -0.8660255 -0.4999998  0.0000000 )
                  (  0.0000000  0.0000000  1.0000000 )


      isym =  5     180 deg rotation - cryst. axis [1,-1,0]      

 cryst.   s( 5) = (     0         -1          0      )
                  (    -1          0          0      )
                  (     0          0         -1      )

 cart.    s( 5) = (  0.4999998 -0.8660255  0.0000000 )
                  ( -0.8660255 -0.4999998  0.0000000 )
                  (  0.0000000  0.0000000 -1.0000000 )


      isym =  6     180 deg rotation - cryst. axis [2,1,0]       

 cryst.   s( 6) = (     1          1          0      )
                  (     0         -1          0      )
                  (     0          0         -1      )

 cart.    s( 6) = (  0.5000002  0.8660250  0.0000000 )
                  (  0.8660255 -0.5000002  0.0000000 )
                  (  0.0000000  0.0000000 -1.0000000 )


      isym =  7     inv. 180 deg rotation - cart. axis [0,0,1]   

 cryst.   s( 7) = (     1          0          0      )
                  (     0          1          0      )
                  (     0          0         -1      )

 cart.    s( 7) = (  1.0000000  0.0000000  0.0000000 )
                  (  0.0000000  1.0000000  0.0000000 )
                  (  0.0000000  0.0000000 -1.0000000 )


      isym =  8     inv. 180 deg rotation - cart. axis [1,0,0]   

 cryst.   s( 8) = (    -1          0          0      )
                  (     1          1          0      )
                  (     0          0          1      )

 cart.    s( 8) = ( -1.0000000  0.0000005  0.0000000 )
                  (  0.0000000  1.0000000  0.0000000 )
                  (  0.0000000  0.0000000  1.0000000 )


      isym =  9     inv.  60 deg rotation - cryst. axis [0,0,1]  

 cryst.   s( 9) = (    -1         -1          0      )
                  (     1          0          0      )
                  (     0          0         -1      )

 cart.    s( 9) = ( -0.5000002  0.8660253  0.0000000 )
                  ( -0.8660255 -0.4999998  0.0000000 )
                  (  0.0000000  0.0000000 -1.0000000 )


      isym = 10     inv.  60 deg rotation - cryst. axis [0,0,-1] 

 cryst.   s(10) = (     0          1          0      )
                  (    -1         -1          0      )
                  (     0          0         -1      )

 cart.    s(10) = ( -0.4999998 -0.8660253  0.0000000 )
                  (  0.8660255 -0.5000002  0.0000000 )
                  (  0.0000000  0.0000000 -1.0000000 )


      isym = 11     inv. 180 deg rotation - cryst. axis [0,1,0]  

 cryst.   s(11) = (     1          1          0      )
                  (     0         -1          0      )
                  (     0          0          1      )

 cart.    s(11) = (  0.5000002  0.8660250  0.0000000 )
                  (  0.8660255 -0.5000002  0.0000000 )
                  (  0.0000000  0.0000000  1.0000000 )


      isym = 12     inv. 180 deg rotation - cryst. axis [1,1,0]  

 cryst.   s(12) = (     0         -1          0      )
                  (    -1          0          0      )
                  (     0          0          1      )

 cart.    s(12) = (  0.4999998 -0.8660255  0.0000000 )
                  ( -0.8660255 -0.4999998  0.0000000 )
                  (  0.0000000  0.0000000  1.0000000 )


   Cartesian axes

     site n.     atom                  positions (alat units)
         1        B      tau(   1) = (   0.0000000   0.0000000   8.2649415  )
         2        B      tau(   2) = (   0.0000000   0.0000000   7.0109717  )
         3        B      tau(   3) = (   0.0000000   0.0000000   5.7570123  )
         4        N      tau(   4) = (  -0.0000004   0.5773506   8.2649415  )
         5        N      tau(   5) = (  -0.0000004   0.5773506   7.0109717  )
         6        N      tau(   6) = (  -0.0000004   0.5773506   5.7570123  )
         7        Ni     tau(   7) = (   0.0000000   0.0000000   1.6697392  )
         8        Ni     tau(   8) = (  -0.0000004   0.5773506   2.4862373  )
         9        Ni     tau(   9) = (   0.5000006   0.2886749   3.3027352  )
        10        Ni     tau(  10) = (   0.0000000   0.0000000   4.1192329  )
        11        Ni     tau(  11) = (  -0.0000004   0.5773506   4.9357190  )
        12        Ni     tau(  12) = (   0.0000000   0.0000000  12.3522074  )
        13        Ni     tau(  13) = (  -0.0000004   0.5773506  11.5357088  )
        14        Ni     tau(  14) = (   0.5000006   0.2886749  10.7192111  )
        15        Ni     tau(  15) = (   0.0000000   0.0000000   9.9027134  )
        16        Ni     tau(  16) = (  -0.0000004   0.5773506   9.0862274  )

   Crystallographic axes

     site n.     atom                  positions (cryst. coord.)
         1        B      tau(   1) = (  0.0000000  0.0000000  0.5894290  )
         2        B      tau(   2) = (  0.0000000  0.0000000  0.4999999  )
         3        B      tau(   3) = (  0.0000000  0.0000000  0.4105715  )
         4        N      tau(   4) = (  0.3333330  0.6666670  0.5894290  )
         5        N      tau(   5) = (  0.3333330  0.6666670  0.4999999  )
         6        N      tau(   6) = (  0.3333330  0.6666670  0.4105715  )
         7        Ni     tau(   7) = (  0.0000000  0.0000000  0.1190804  )
         8        Ni     tau(   8) = (  0.3333330  0.6666670  0.1773104  )
         9        Ni     tau(   9) = (  0.6666670  0.3333330  0.2355404  )
        10        Ni     tau(  10) = (  0.0000000  0.0000000  0.2937704  )
        11        Ni     tau(  11) = (  0.3333330  0.6666670  0.3519996  )
        12        Ni     tau(  12) = (  0.0000000  0.0000000  0.8809196  )
        13        Ni     tau(  13) = (  0.3333330  0.6666670  0.8226895  )
        14        Ni     tau(  14) = (  0.6666670  0.3333330  0.7644596  )
        15        Ni     tau(  15) = (  0.0000000  0.0000000  0.7062296  )
        16        Ni     tau(  16) = (  0.3333330  0.6666670  0.6480004  )

     number of k points=    44  Marzari-Vanderbilt smearing, width (Ry)=  0.0300
                       cart. coord. in units 2pi/alat
        k(    1) = (   0.0000000   0.0000000   0.0000000), wk =   0.0025000
        k(    2) = (   0.0000000   0.0577350   0.0000000), wk =   0.0150000
        k(    3) = (   0.0000000   0.1154700   0.0000000), wk =   0.0150000
        k(    4) = (   0.0000000   0.1732051   0.0000000), wk =   0.0150000
        k(    5) = (   0.0000000   0.2309401   0.0000000), wk =   0.0150000
        k(    6) = (   0.0000000   0.2886751   0.0000000), wk =   0.0150000
        k(    7) = (   0.0000000   0.3464101   0.0000000), wk =   0.0150000
        k(    8) = (   0.0000000   0.4041451   0.0000000), wk =   0.0150000
        k(    9) = (   0.0000000   0.4618801   0.0000000), wk =   0.0150000
        k(   10) = (   0.0000000   0.5196152   0.0000000), wk =   0.0150000
        k(   11) = (   0.0000000  -0.5773502   0.0000000), wk =   0.0075000
        k(   12) = (   0.0500000   0.0866025   0.0000000), wk =   0.0150000
        k(   13) = (   0.0500000   0.1443375   0.0000000), wk =   0.0300000
        k(   14) = (   0.0500000   0.2020725   0.0000000), wk =   0.0300000
        k(   15) = (   0.0500000   0.2598076   0.0000000), wk =   0.0300000
        k(   16) = (   0.0500000   0.3175426   0.0000000), wk =   0.0300000
        k(   17) = (   0.0500000   0.3752776   0.0000000), wk =   0.0300000
        k(   18) = (   0.0500000   0.4330126   0.0000000), wk =   0.0300000
        k(   19) = (   0.0500000   0.4907476   0.0000000), wk =   0.0300000
        k(   20) = (   0.0500000   0.5484827   0.0000000), wk =   0.0300000
        k(   21) = (   0.1000000   0.1732050   0.0000000), wk =   0.0150000
        k(   22) = (   0.1000000   0.2309400   0.0000000), wk =   0.0300000
        k(   23) = (   0.1000000   0.2886751   0.0000000), wk =   0.0300000
        k(   24) = (   0.1000000   0.3464101   0.0000000), wk =   0.0300000
        k(   25) = (   0.1000000   0.4041451   0.0000000), wk =   0.0300000
        k(   26) = (   0.1000000   0.4618801   0.0000000), wk =   0.0300000
        k(   27) = (   0.1000000   0.5196151   0.0000000), wk =   0.0300000
        k(   28) = (   0.1000000   0.5773502   0.0000000), wk =   0.0150000
        k(   29) = (   0.1500000   0.2598075   0.0000000), wk =   0.0150000
        k(   30) = (   0.1500000   0.3175426   0.0000000), wk =   0.0300000
        k(   31) = (   0.1500000   0.3752776   0.0000000), wk =   0.0300000
        k(   32) = (   0.1500000   0.4330126   0.0000000), wk =   0.0300000
        k(   33) = (   0.1500000   0.4907476   0.0000000), wk =   0.0300000
        k(   34) = (   0.1500000   0.5484826   0.0000000), wk =   0.0300000
        k(   35) = (   0.2000000   0.3464101   0.0000000), wk =   0.0150000
        k(   36) = (   0.2000000   0.4041451   0.0000000), wk =   0.0300000
        k(   37) = (   0.2000000   0.4618801   0.0000000), wk =   0.0300000
        k(   38) = (   0.2000000   0.5196151   0.0000000), wk =   0.0300000
        k(   39) = (   0.2000000   0.5773501   0.0000000), wk =   0.0150000
        k(   40) = (   0.2500000   0.4330126   0.0000000), wk =   0.0150000
        k(   41) = (   0.2500000   0.4907476   0.0000000), wk =   0.0300000
        k(   42) = (   0.2500000   0.5484826   0.0000000), wk =   0.0300000
        k(   43) = (   0.3000000   0.5196151   0.0000000), wk =   0.0150000
        k(   44) = (   0.3000000   0.5773501   0.0000000), wk =   0.0150000

                       cryst. coord.
        k(    1) = (   0.0000000   0.0000000   0.0000000), wk =   0.0025000
        k(    2) = (   0.0000000   0.0500000   0.0000000), wk =   0.0150000
        k(    3) = (   0.0000000   0.1000000   0.0000000), wk =   0.0150000
        k(    4) = (   0.0000000   0.1500000   0.0000000), wk =   0.0150000
        k(    5) = (   0.0000000   0.2000000   0.0000000), wk =   0.0150000
        k(    6) = (   0.0000000   0.2500000   0.0000000), wk =   0.0150000
        k(    7) = (   0.0000000   0.3000000   0.0000000), wk =   0.0150000
        k(    8) = (   0.0000000   0.3500000   0.0000000), wk =   0.0150000
        k(    9) = (   0.0000000   0.4000000   0.0000000), wk =   0.0150000
        k(   10) = (   0.0000000   0.4500000   0.0000000), wk =   0.0150000
        k(   11) = (   0.0000000  -0.5000000   0.0000000), wk =   0.0075000
        k(   12) = (   0.0500000   0.0500000   0.0000000), wk =   0.0150000
        k(   13) = (   0.0500000   0.1000000   0.0000000), wk =   0.0300000
        k(   14) = (   0.0500000   0.1500000   0.0000000), wk =   0.0300000
        k(   15) = (   0.0500000   0.2000000   0.0000000), wk =   0.0300000
        k(   16) = (   0.0500000   0.2500000   0.0000000), wk =   0.0300000
        k(   17) = (   0.0500000   0.3000000   0.0000000), wk =   0.0300000
        k(   18) = (   0.0500000   0.3500000   0.0000000), wk =   0.0300000
        k(   19) = (   0.0500000   0.4000000   0.0000000), wk =   0.0300000
        k(   20) = (   0.0500000   0.4500000   0.0000000), wk =   0.0300000
        k(   21) = (   0.1000000   0.1000000   0.0000000), wk =   0.0150000
        k(   22) = (   0.1000000   0.1500000   0.0000000), wk =   0.0300000
        k(   23) = (   0.1000000   0.2000000   0.0000000), wk =   0.0300000
        k(   24) = (   0.1000000   0.2500000   0.0000000), wk =   0.0300000
        k(   25) = (   0.1000000   0.3000000   0.0000000), wk =   0.0300000
        k(   26) = (   0.1000000   0.3500000   0.0000000), wk =   0.0300000
        k(   27) = (   0.1000000   0.4000000   0.0000000), wk =   0.0300000
        k(   28) = (   0.1000000   0.4500000   0.0000000), wk =   0.0150000
        k(   29) = (   0.1500000   0.1500000   0.0000000), wk =   0.0150000
        k(   30) = (   0.1500000   0.2000000   0.0000000), wk =   0.0300000
        k(   31) = (   0.1500000   0.2500000   0.0000000), wk =   0.0300000
        k(   32) = (   0.1500000   0.3000000   0.0000000), wk =   0.0300000
        k(   33) = (   0.1500000   0.3500000   0.0000000), wk =   0.0300000
        k(   34) = (   0.1500000   0.4000000   0.0000000), wk =   0.0300000
        k(   35) = (   0.2000000   0.2000000   0.0000000), wk =   0.0150000
        k(   36) = (   0.2000000   0.2500000   0.0000000), wk =   0.0300000
        k(   37) = (   0.2000000   0.3000000   0.0000000), wk =   0.0300000
        k(   38) = (   0.2000000   0.3500000   0.0000000), wk =   0.0300000
        k(   39) = (   0.2000000   0.4000000   0.0000000), wk =   0.0150000
        k(   40) = (   0.2500000   0.2500000   0.0000000), wk =   0.0150000
        k(   41) = (   0.2500000   0.3000000   0.0000000), wk =   0.0300000
        k(   42) = (   0.2500000   0.3500000   0.0000000), wk =   0.0300000
        k(   43) = (   0.3000000   0.3000000   0.0000000), wk =   0.0150000
        k(   44) = (   0.3000000   0.3500000   0.0000000), wk =   0.0150000

     Dense  grid:   226877 G-vectors     FFT dimensions: (  36,  36, 480)

     Smooth grid:    80145 G-vectors     FFT dimensions: (  24,  24, 360)

     Dynamical RAM for                 wfc:      18.62 MB

     Dynamical RAM for     wfc (w. buffer):    1657.13 MB

     Dynamical RAM for           str. fact:      10.39 MB

     Dynamical RAM for           local pot:       0.00 MB

     Dynamical RAM for          nlocal pot:      34.80 MB

     Dynamical RAM for                qrad:       5.27 MB

     Dynamical RAM for          rho,v,vnew:      49.25 MB

     Dynamical RAM for               rhoin:      16.42 MB

     Dynamical RAM for            rho*nmix:     166.17 MB

     Dynamical RAM for           G-vectors:      13.59 MB

     Dynamical RAM for          h,s,v(r/c):       2.73 MB

     Dynamical RAM for          <psi|beta>:       0.42 MB

     Dynamical RAM for                 psi:      37.24 MB

     Dynamical RAM for                hpsi:      37.24 MB

     Dynamical RAM for                spsi:      37.24 MB

     Dynamical RAM for      wfcinit/wfcrot:      37.58 MB

     Dynamical RAM for           addusdens:     681.99 MB

     Dynamical RAM for          addusforce:     744.38 MB

     Dynamical RAM for         addusstress:     701.03 MB

     Estimated static dynamical RAM per process >       1.79 GB

     Estimated max dynamical RAM per process >       2.68 GB

     Atomic positions and unit cell read from directory:
     ./out/ni3hnb.save/
     Atomic positions from file used, from input discarded
 

     Check: negative core charge=   -0.000007
     Generating pointlists ...
     new r_m :   0.2382 (alat units)  1.1234 (a.u.) for type    1
     new r_m :   0.2382 (alat units)  1.1234 (a.u.) for type    2
     new r_m :   0.3409 (alat units)  1.6078 (a.u.) for type    3

     The initial density is read from file :
     ./out/ni3hnb.save/charge-density


     negative rho (up, down):  5.593E-06 1.612E-05
     Starting wfcs from file

     total cpu time spent up to now is       15.5 secs

     Self-consistent Calculation

     iteration #  1     ecut=    60.00 Ry     beta= 0.15
     Davidson diagonalization with overlap

---- Real-time Memory Report at c_bands before calling an iterative solver
          1913 MiB given to the printing process from OS
             0 MiB allocation reported by mallinfo(arena+hblkhd)
        440426 MiB available memory on the node where the printing process lives
------------------
     ethr =  1.00E-05,  avg # of iterations =  1.1

     Threshold (ethr) on eigenvalues was too large:
     Diagonalizing with lowered threshold

     Davidson diagonalization with overlap

---- Real-time Memory Report at c_bands before calling an iterative solver
          3050 MiB given to the printing process from OS
             0 MiB allocation reported by mallinfo(arena+hblkhd)
        436863 MiB available memory on the node where the printing process lives
------------------
     ethr =  1.68E-07,  avg # of iterations =  1.0

     negative rho (up, down):  5.555E-06 1.603E-05

     total cpu time spent up to now is      112.9 secs

     total energy              =   -3510.74029171 Ry
     estimated scf accuracy    <       0.00034323 Ry

     total magnetization       =     0.71 Bohr mag/cell
     absolute magnetization    =     7.51 Bohr mag/cell

     iteration #  2     ecut=    60.00 Ry     beta= 0.15
     Davidson diagonalization with overlap

---- Real-time Memory Report at c_bands before calling an iterative solver
          3099 MiB given to the printing process from OS
             0 MiB allocation reported by mallinfo(arena+hblkhd)
        436613 MiB available memory on the node where the printing process lives
------------------
     ethr =  1.68E-07,  avg # of iterations =  1.0

     negative rho (up, down):  5.538E-06 1.599E-05

     total cpu time spent up to now is      161.0 secs

     total energy              =   -3510.74029321 Ry
     estimated scf accuracy    <       0.00000496 Ry

     total magnetization       =     0.73 Bohr mag/cell
     absolute magnetization    =     7.51 Bohr mag/cell

     iteration #  3     ecut=    60.00 Ry     beta= 0.15
     Davidson diagonalization with overlap

---- Real-time Memory Report at c_bands before calling an iterative solver
          3101 MiB given to the printing process from OS
             0 MiB allocation reported by mallinfo(arena+hblkhd)
        440545 MiB available memory on the node where the printing process lives
------------------
     ethr =  2.43E-09,  avg # of iterations =  1.0

     negative rho (up, down):  5.493E-06 1.587E-05

     total cpu time spent up to now is      210.5 secs

     total energy              =   -3510.74029327 Ry
     estimated scf accuracy    <       0.00001470 Ry

     total magnetization       =     0.73 Bohr mag/cell
     absolute magnetization    =     7.51 Bohr mag/cell

     iteration #  4     ecut=    60.00 Ry     beta= 0.15
     Davidson diagonalization with overlap

---- Real-time Memory Report at c_bands before calling an iterative solver
          3108 MiB given to the printing process from OS
             0 MiB allocation reported by mallinfo(arena+hblkhd)
        440536 MiB available memory on the node where the printing process lives
------------------
     ethr =  2.43E-09,  avg # of iterations =  1.0

     negative rho (up, down):  5.402E-06 1.565E-05

     total cpu time spent up to now is      258.5 secs

     total energy              =   -3510.74029315 Ry
     estimated scf accuracy    <       0.00000759 Ry

     total magnetization       =     0.73 Bohr mag/cell
     absolute magnetization    =     7.51 Bohr mag/cell

     iteration #  5     ecut=    60.00 Ry     beta= 0.15
     Davidson diagonalization with overlap

---- Real-time Memory Report at c_bands before calling an iterative solver
          3113 MiB given to the printing process from OS
             0 MiB allocation reported by mallinfo(arena+hblkhd)
        439896 MiB available memory on the node where the printing process lives
------------------
     ethr =  2.43E-09,  avg # of iterations =  1.0

     negative rho (up, down):  5.394E-06 1.562E-05

     total cpu time spent up to now is      305.8 secs

     total energy              =   -3510.74029321 Ry
     estimated scf accuracy    <       0.00000025 Ry

     total magnetization       =     0.73 Bohr mag/cell
     absolute magnetization    =     7.51 Bohr mag/cell

     iteration #  6     ecut=    60.00 Ry     beta= 0.15
     Davidson diagonalization with overlap

---- Real-time Memory Report at c_bands before calling an iterative solver
          3118 MiB given to the printing process from OS
             0 MiB allocation reported by mallinfo(arena+hblkhd)
        440542 MiB available memory on the node where the printing process lives
------------------
     ethr =  1.24E-10,  avg # of iterations =  1.0

     negative rho (up, down):  5.449E-06 1.576E-05

     total cpu time spent up to now is      353.1 secs

     total energy              =   -3510.74029321 Ry
     estimated scf accuracy    <       0.00000029 Ry

     total magnetization       =     0.73 Bohr mag/cell
     absolute magnetization    =     7.51 Bohr mag/cell

     iteration #  7     ecut=    60.00 Ry     beta= 0.15
     Davidson diagonalization with overlap

---- Real-time Memory Report at c_bands before calling an iterative solver
          3123 MiB given to the printing process from OS
             0 MiB allocation reported by mallinfo(arena+hblkhd)
        440513 MiB available memory on the node where the printing process lives
------------------
     ethr =  1.24E-10,  avg # of iterations =  1.0

     negative rho (up, down):  5.513E-06 1.592E-05

     total cpu time spent up to now is      401.7 secs

     total energy              =   -3510.74029321 Ry
     estimated scf accuracy    <       0.00000008 Ry

     total magnetization       =     0.73 Bohr mag/cell
     absolute magnetization    =     7.51 Bohr mag/cell

     iteration #  8     ecut=    60.00 Ry     beta= 0.15
     Davidson diagonalization with overlap

---- Real-time Memory Report at c_bands before calling an iterative solver
          3128 MiB given to the printing process from OS
             0 MiB allocation reported by mallinfo(arena+hblkhd)
        436804 MiB available memory on the node where the printing process lives
------------------
     ethr =  3.69E-11,  avg # of iterations =  1.0

     negative rho (up, down):  5.514E-06 1.592E-05

     total cpu time spent up to now is      450.0 secs

     total energy              =   -3510.74029321 Ry
     estimated scf accuracy    <       0.00000003 Ry

     total magnetization       =     0.73 Bohr mag/cell
     absolute magnetization    =     7.51 Bohr mag/cell

     iteration #  9     ecut=    60.00 Ry     beta= 0.15
     Davidson diagonalization with overlap

---- Real-time Memory Report at c_bands before calling an iterative solver
          3135 MiB given to the printing process from OS
             0 MiB allocation reported by mallinfo(arena+hblkhd)
        436842 MiB available memory on the node where the printing process lives
------------------
     ethr =  1.70E-11,  avg # of iterations =  1.0

     negative rho (up, down):  5.567E-06 1.605E-05

     total cpu time spent up to now is      498.1 secs

     total energy              =   -3510.74029321 Ry
     estimated scf accuracy    <       0.00000003 Ry

     total magnetization       =     0.73 Bohr mag/cell
     absolute magnetization    =     7.51 Bohr mag/cell

     iteration # 10     ecut=    60.00 Ry     beta= 0.15
     Davidson diagonalization with overlap

---- Real-time Memory Report at c_bands before calling an iterative solver
          3139 MiB given to the printing process from OS
             0 MiB allocation reported by mallinfo(arena+hblkhd)
        440630 MiB available memory on the node where the printing process lives
------------------
     ethr =  1.51E-11,  avg # of iterations =  1.1

     negative rho (up, down):  5.582E-06 1.608E-05
 
     Magnetic moment per site  (integrated on atomic sphere of radius R)
     atom   1 (R=0.238)  charge=  0.8806  magn= -0.0035
     atom   2 (R=0.238)  charge=  0.8776  magn= -0.0001
     atom   3 (R=0.238)  charge=  0.8806  magn= -0.0035
     atom   4 (R=0.238)  charge=  2.8445  magn=  0.0137
     atom   5 (R=0.238)  charge=  2.8407  magn=  0.0012
     atom   6 (R=0.238)  charge=  2.8445  magn=  0.0137
     atom   7 (R=0.341)  charge= 15.6812  magn= -0.8364
     atom   8 (R=0.341)  charge= 15.6995  magn= -0.7047
     atom   9 (R=0.341)  charge= 15.7038  magn=  0.5064
     atom  10 (R=0.341)  charge= 15.6944  magn=  0.7534
     atom  11 (R=0.341)  charge= 15.7305  magn=  0.6628
     atom  12 (R=0.341)  charge= 15.6812  magn= -0.8364
     atom  13 (R=0.341)  charge= 15.6995  magn= -0.7047
     atom  14 (R=0.341)  charge= 15.7038  magn=  0.5064
     atom  15 (R=0.341)  charge= 15.6944  magn=  0.7534
     atom  16 (R=0.341)  charge= 15.7305  magn=  0.6628

     total cpu time spent up to now is      546.6 secs

     End of self-consistent calculation

 ------ SPIN UP ------------


          k = 0.0000 0.0000 0.0000 (  9937 PWs)   bands (ev):

   -92.0582 -92.0557 -91.9582 -91.9551 -91.6903 -91.6885 -90.9675 -90.9665
   -90.7262 -90.7259 -52.6831 -52.6804 -52.5455 -52.5425 -52.4737 -52.4737
   -52.4712 -52.4712 -52.3614 -52.3614 -52.3583 -52.3582 -52.2050 -52.2031
   -52.1403 -52.1402 -52.1384 -52.1384 -51.5671 -51.5662 -51.4234 -51.4234
   -51.4225 -51.4224 -51.2266 -51.2266 -51.2263 -51.2263 -51.2206 -51.2203
    -9.3575  -9.3475  -8.4707   1.5976   1.7143   2.6572   2.6842   3.6100
     3.7435   4.1098   5.2266   5.2777   6.2454   6.2699   6.7103   6.7115
     7.2689   7.2690   7.2702   7.2703   7.9000   7.9001   8.8914   8.8946
     8.9927   8.9927   8.9951   8.9951   9.0570   9.0570   9.0599   9.0599
     9.1794   9.1819   9.3141   9.3141   9.3162   9.3162   9.8013   9.8013
     9.8024   9.8024   9.8227   9.8271  10.0667  10.0667  10.0675  10.0675
    10.0737  10.0804  10.1204  10.1205  10.1227  10.1227  10.4031  10.4031
    10.4054  10.4054  10.7367  10.7367  10.7386  10.7386  11.0425  11.0426
    11.0434  11.0434  11.5118  11.5376  11.6277  11.6277  11.6283  11.6283
    13.7610  14.3476  16.2346  16.8099  17.9561  18.9162  19.5619  20.1569
    20.2165  20.2193

     occupation numbers 
     1.0000   1.0000   1.0000   1.0000   1.0000   1.0000   1.0000   1.0000
     1.0000   1.0000   1.0000   1.0000   1.0000   1.0000   1.0000   1.0000
     1.0000   1.0000   1.0000   1.0000   1.0000   1.0000   1.0000   1.0000
     1.0000   1.0000   1.0000   1.0000   1.0000   1.0000   1.0000   1.0000
     1.0000   1.0000   1.0000   1.0000   1.0000   1.0000   1.0000   1.0000
     1.0000   1.0000   1.0000   1.0000   1.0000   1.0000   1.0000   1.0000
     1.0000   1.0000   1.0000   1.0000   1.0000   1.0000   1.0000   1.0000
     1.0000   1.0000   1.0000   1.0000   1.0000   1.0000   1.0000   1.0000
     1.0000   1.0000   1.0000   1.0000   1.0000   1.0000   1.0000   1.0000
     1.0000   1.0000   1.0000   1.0000   1.0000   1.0000   1.0000   1.0000
     1.0000   1.0000   1.0000   1.0000   1.0001   1.0001   1.0001   1.0001
     1.0001   1.0001   1.0001   1.0001   1.0002   1.0002   1.0038   1.0038
     1.0039   1.0039   1.0449   1.0449   1.0454   1.0454   1.0712   1.0712
     1.0709   1.0709   0.4421   0.3980   0.2613   0.2613   0.2605   0.2605
     0.0000   0.0000   0.0000   0.0000   0.0000   0.0000   0.0000   0.0000
     0.0000   0.0000

          k = 0.0000 0.0577 0.0000 (  9946 PWs)   bands (ev):

   -92.0577 -92.0552 -91.9577 -91.9546 -91.6898 -91.6880 -90.9669 -90.9659
   -90.7257 -90.7254 -52.6819 -52.6792 -52.5461 -52.5432 -52.4772 -52.4747
   -52.4747 -52.4722 -52.3653 -52.3624 -52.3621 -52.3592 -52.2045 -52.2027
   -52.1442 -52.1424 -52.1412 -52.1394 -51.5664 -51.5655 -51.4277 -51.4267
   -51.4245 -51.4235 -51.2307 -51.2304 -51.2276 -51.2273 -51.2201 -51.2198
    -9.3083  -9.2984  -8.4221   1.6694   1.7867   2.7408   2.7674   3.6871
     3.8220   4.1775   5.2974   5.3479   6.2910   6.3150   6.7702   6.7714
     7.0714   7.0728   7.1719   7.1733   7.6912   7.8018   8.8398   8.8430
     8.9627   8.9652   9.0018   9.0046   9.0225   9.0250   9.0862   9.0890
     9.1911   9.1933   9.3034   9.3055   9.3478   9.3499   9.6951   9.6988
     9.7943   9.7962   9.8276   9.8288  10.0098  10.0116  10.0461  10.0472
    10.0704  10.0720  10.1232  10.1252  10.1312  10.1326  10.4090  10.4113
    10.4220  10.4248  10.7362  10.7381  10.8112  10.8148  11.0408  11.0417
    11.0806  11.0871  11.1851  11.1922  11.6304  11.6310  12.1119  12.1310
    13.8775  14.4473  16.3122  16.8642  18.0179  18.9152  19.5937  20.1339
    20.1664  20.2134

     occupation numbers 
     1.0000   1.0000   1.0000   1.0000   1.0000   1.0000   1.0000   1.0000
     1.0000   1.0000   1.0000   1.0000   1.0000   1.0000   1.0000   1.0000
     1.0000   1.0000   1.0000   1.0000   1.0000   1.0000   1.0000   1.0000
     1.0000   1.0000   1.0000   1.0000   1.0000   1.0000   1.0000   1.0000
     1.0000   1.0000   1.0000   1.0000   1.0000   1.0000   1.0000   1.0000
     1.0000   1.0000   1.0000   1.0000   1.0000   1.0000   1.0000   1.0000
     1.0000   1.0000   1.0000   1.0000   1.0000   1.0000   1.0000   1.0000
     1.0000   1.0000   1.0000   1.0000   1.0000   1.0000   1.0000   1.0000
     1.0000   1.0000   1.0000   1.0000   1.0000   1.0000   1.0000   1.0000
     1.0000   1.0000   1.0000   1.0000   1.0000   1.0000   1.0000   1.0000
     1.0000   1.0000   1.0000   1.0000   1.0000   1.0000   1.0001   1.0001
     1.0001   1.0001   1.0002   1.0002   1.0002   1.0002   1.0040   1.0041
     1.0046   1.0047   1.0448   1.0453   1.0620   1.0628   1.0717   1.0715
     1.0559   1.0526   0.9753   0.9676   0.2577   0.2569   0.0059   0.0048
     0.0000   0.0000   0.0000   0.0000   0.0000   0.0000   0.0000   0.0000
     0.0000   0.0000

          k = 0.0000 0.1155 0.0000 (  9958 PWs)   bands (ev):

   -92.0560 -92.0535 -91.9563 -91.9531 -91.6883 -91.6864 -90.9653 -90.9643
   -90.7241 -90.7239 -52.6784 -52.6757 -52.5484 -52.5455 -52.4871 -52.4846
   -52.4777 -52.4752 -52.3765 -52.3734 -52.3651 -52.3619 -52.2032 -52.2014
   -52.1555 -52.1537 -52.1440 -52.1422 -51.5645 -51.5636 -51.4401 -51.4392
   -51.4275 -51.4265 -51.2423 -51.2420 -51.2304 -51.2301 -51.2190 -51.2187
    -9.1616  -9.1520  -8.2770   1.8828   2.0014   2.9892   3.0146   3.9145
     4.0539   4.3785   5.4991   5.5496   6.2637   6.2802   6.6771   6.6829
     6.9038   6.9052   6.9546   6.9559   7.1074   7.5304   8.6975   8.7004
     8.8599   8.8626   8.9089   8.9114   9.1006   9.1031   9.1567   9.1588
     9.1749   9.1777   9.2705   9.2727   9.4462   9.4484   9.4621   9.4651
     9.6997   9.7010   9.8891   9.8905   9.9641   9.9654   9.9908   9.9916
    10.0613  10.0633  10.0885  10.0904  10.2020  10.2028  10.4247  10.4270
    10.4560  10.4611  10.7347  10.7387  10.7391  10.7405  10.9623  10.9705
    11.0389  11.0398  11.4531  11.4649  11.6374  11.6380  12.7104  12.7433
    14.2089  14.7319  16.5415  17.0121  18.1983  18.8752  19.6644  20.0160
    20.0498  20.2590

     occupation numbers 
     1.0000   1.0000   1.0000   1.0000   1.0000   1.0000   1.0000   1.0000
     1.0000   1.0000   1.0000   1.0000   1.0000   1.0000   1.0000   1.0000
     1.0000   1.0000   1.0000   1.0000   1.0000   1.0000   1.0000   1.0000
     1.0000   1.0000   1.0000   1.0000   1.0000   1.0000   1.0000   1.0000
     1.0000   1.0000   1.0000   1.0000   1.0000   1.0000   1.0000   1.0000
     1.0000   1.0000   1.0000   1.0000   1.0000   1.0000   1.0000   1.0000
     1.0000   1.0000   1.0000   1.0000   1.0000   1.0000   1.0000   1.0000
     1.0000   1.0000   1.0000   1.0000   1.0000   1.0000   1.0000   1.0000
     1.0000   1.0000   1.0000   1.0000   1.0000   1.0000   1.0000   1.0000
     1.0000   1.0000   1.0000   1.0000   1.0000   1.0000   1.0000   1.0000
     1.0000   1.0000   1.0000   1.0000   1.0000   1.0000   1.0000   1.0000
     1.0001   1.0001   1.0001   1.0001   1.0004   1.0004   1.0047   1.0048
     1.0062   1.0065   1.0445   1.0454   1.0455   1.0458   1.0833   1.0831
     1.0723   1.0721   0.5476   0.5259   0.2485   0.2477   0.0000   0.0000
     0.0000   0.0000   0.0000   0.0000   0.0000   0.0000   0.0000   0.0000
     0.0000   0.0000

          k = 0.0000 0.1732 0.0000 (  9958 PWs)   bands (ev):

   -92.0535 -92.0510 -91.9540 -91.9508 -91.6859 -91.6841 -90.9627 -90.9618
   -90.7217 -90.7215 -52.6729 -52.6702 -52.5533 -52.5504 -52.5014 -52.4988
   -52.4823 -52.4798 -52.3939 -52.3907 -52.3694 -52.3662 -52.2014 -52.1996
   -52.1730 -52.1712 -52.1484 -52.1466 -51.5616 -51.5607 -51.4593 -51.4583
   -51.4322 -51.4312 -51.2602 -51.2599 -51.2349 -51.2346 -51.2175 -51.2172
    -8.9204  -8.9112  -8.0382   2.2312   2.3511   3.3943   3.4178   4.2782
     4.4268   4.7026   5.4563   5.4980   5.8864   5.9094   6.2484   6.5198
     6.5212   6.8151   6.8268   7.1420   7.2240   7.2253   8.4999   8.5025
     8.6937   8.6964   8.8109   8.8133   9.0435   9.0458   9.1702   9.1721
     9.1913   9.1938   9.2953   9.2971   9.3260   9.3287   9.5989   9.6002
     9.6012   9.6035   9.8524   9.8541   9.9071   9.9080   9.9199   9.9220
    10.0783  10.0806  10.1163  10.1180  10.3025  10.3036  10.4446  10.4496
    10.4657  10.4676  10.6090  10.6142  10.7564  10.7581  11.0468  11.0477
    11.0775  11.0872  11.6463  11.6469  11.8449  11.8640  13.3450  13.3961
    14.7182  15.1702  16.9027  17.2225  18.4522  18.7197  19.6765  19.8434
    19.9366  20.3155

     occupation numbers 
     1.0000   1.0000   1.0000   1.0000   1.0000   1.0000   1.0000   1.0000
     1.0000   1.0000   1.0000   1.0000   1.0000   1.0000   1.0000   1.0000
     1.0000   1.0000   1.0000   1.0000   1.0000   1.0000   1.0000   1.0000
     1.0000   1.0000   1.0000   1.0000   1.0000   1.0000   1.0000   1.0000
     1.0000   1.0000   1.0000   1.0000   1.0000   1.0000   1.0000   1.0000
     1.0000   1.0000   1.0000   1.0000   1.0000   1.0000   1.0000   1.0000
     1.0000   1.0000   1.0000   1.0000   1.0000   1.0000   1.0000   1.0000
     1.0000   1.0000   1.0000   1.0000   1.0000   1.0000   1.0000   1.0000
     1.0000   1.0000   1.0000   1.0000   1.0000   1.0000   1.0000   1.0000
     1.0000   1.0000   1.0000   1.0000   1.0000   1.0000   1.0000   1.0000
     1.0000   1.0000   1.0000   1.0000   1.0000   1.0000   1.0000   1.0000
     1.0001   1.0001   1.0001   1.0001   1.0013   1.0014   1.0056   1.0059
     1.0068   1.0069   1.0211   1.0218   1.0494   1.0498   1.0698   1.0695
     1.0574   1.0526   0.2371   0.2362   0.0660   0.0571   0.0000   0.0000
     0.0000   0.0000   0.0000   0.0000   0.0000   0.0000   0.0000   0.0000
     0.0000   0.0000

          k = 0.0000 0.2309 0.0000 (  9964 PWs)   bands (ev):

   -92.0503 -92.0478 -91.9512 -91.9480 -91.6829 -91.6811 -90.9596 -90.9586
   -90.7187 -90.7184 -52.6660 -52.6632 -52.5627 -52.5599 -52.5163 -52.5137
   -52.4882 -52.4857 -52.4154 -52.4122 -52.3748 -52.3716 -52.2012 -52.1994
   -52.1929 -52.1911 -52.1540 -52.1521 -51.5582 -51.5573 -51.4831 -51.4822
   -51.4381 -51.4371 -51.2825 -51.2822 -51.2405 -51.2402 -51.2159 -51.2156
    -8.5901  -8.5816  -7.7113   2.7040   2.8229   3.9390   3.9605   4.4215
     4.4581   4.8162   4.9228   5.1720   5.2223   6.0823   6.0836   6.2595
     6.2879   6.6998   7.0939   7.1028   7.5359   7.5371   8.2732   8.2757
     8.5315   8.5341   8.6976   8.6998   8.9114   8.9140   9.0348   9.0364
     9.2222   9.2240   9.2529   9.2554   9.5113   9.5130   9.5238   9.5265
     9.7206   9.7227   9.7952   9.7976   9.7979   9.7990   9.9340   9.9361
    10.1027  10.1051  10.2279  10.2297  10.3694  10.3735  10.3778  10.3792
    10.5717  10.5733  10.6751  10.6814  10.8122  10.8136  11.0848  11.0856
    11.2493  11.2606  11.6550  11.6557  12.2732  12.2967  13.9972  14.0650
    15.3679  15.7274  17.2303  17.5615  18.1681  18.8954  19.5349  19.6287
    19.7985  20.2027

     occupation numbers 
     1.0000   1.0000   1.0000   1.0000   1.0000   1.0000   1.0000   1.0000
     1.0000   1.0000   1.0000   1.0000   1.0000   1.0000   1.0000   1.0000
     1.0000   1.0000   1.0000   1.0000   1.0000   1.0000   1.0000   1.0000
     1.0000   1.0000   1.0000   1.0000   1.0000   1.0000   1.0000   1.0000
     1.0000   1.0000   1.0000   1.0000   1.0000   1.0000   1.0000   1.0000
     1.0000   1.0000   1.0000   1.0000   1.0000   1.0000   1.0000   1.0000
     1.0000   1.0000   1.0000   1.0000   1.0000   1.0000   1.0000   1.0000
     1.0000   1.0000   1.0000   1.0000   1.0000   1.0000   1.0000   1.0000
     1.0000   1.0000   1.0000   1.0000   1.0000   1.0000   1.0000   1.0000
     1.0000   1.0000   1.0000   1.0000   1.0000   1.0000   1.0000   1.0000
     1.0000   1.0000   1.0000   1.0000   1.0000   1.0000   1.0000   1.0000
     1.0001   1.0001   1.0006   1.0006   1.0027   1.0028   1.0030   1.0030
     1.0161   1.0163   1.0322   1.0334   1.0622   1.0625   1.0538   1.0534
     0.8964   0.8804   0.2262   0.2253   0.0009   0.0007   0.0000   0.0000
     0.0000   0.0000   0.0000   0.0000   0.0000   0.0000   0.0000   0.0000
     0.0000   0.0000

          k = 0.0000 0.2887 0.0000 (  9968 PWs)   bands (ev):

   -92.0467 -92.0442 -91.9480 -91.9448 -91.6796 -91.6778 -90.9560 -90.9551
   -90.7153 -90.7151 -52.6583 -52.6556 -52.5781 -52.5754 -52.5282 -52.5254
   -52.4946 -52.4921 -52.4388 -52.4356 -52.3807 -52.3776 -52.2208 -52.2190
   -52.1952 -52.1934 -52.1601 -52.1583 -51.5548 -51.5538 -51.5093 -51.5083
   -51.4446 -51.4437 -51.3069 -51.3066 -51.2467 -51.2464 -51.2142 -51.2139
    -8.1806  -8.1728  -7.3055   3.2780   3.3283   3.3602   3.4228   4.1233
     4.5972   4.6153   5.3656   5.4860   5.6442   5.6456   5.6950   6.2578
     6.6475   6.6721   7.3295   7.3359   7.7853   7.7868   8.0601   8.0625
     8.4258   8.4285   8.5774   8.5794   8.8471   8.8493   8.9616   8.9632
     9.1787   9.1809   9.2588   9.2612   9.4630   9.4653   9.6351   9.6378
     9.7204   9.7229   9.7756   9.7764   9.9485   9.9507  10.0536  10.0561
    10.1109  10.1120  10.3313  10.3335  10.3723  10.3783  10.4458  10.4472
    10.7007  10.7025  10.8191  10.8244  10.9291  10.9302  11.1870  11.1876
    11.4519  11.4638  11.6633  11.6640  12.7272  12.7514  14.6557  14.7263
    16.1155  16.3474  17.1889  17.4211  18.1600  19.0281  19.3024  19.3330
    19.6109  20.1036

     occupation numbers 
     1.0000   1.0000   1.0000   1.0000   1.0000   1.0000   1.0000   1.0000
     1.0000   1.0000   1.0000   1.0000   1.0000   1.0000   1.0000   1.0000
     1.0000   1.0000   1.0000   1.0000   1.0000   1.0000   1.0000   1.0000
     1.0000   1.0000   1.0000   1.0000   1.0000   1.0000   1.0000   1.0000
     1.0000   1.0000   1.0000   1.0000   1.0000   1.0000   1.0000   1.0000
     1.0000   1.0000   1.0000   1.0000   1.0000   1.0000   1.0000   1.0000
     1.0000   1.0000   1.0000   1.0000   1.0000   1.0000   1.0000   1.0000
     1.0000   1.0000   1.0000   1.0000   1.0000   1.0000   1.0000   1.0000
     1.0000   1.0000   1.0000   1.0000   1.0000   1.0000   1.0000   1.0000
     1.0000   1.0000   1.0000   1.0000   1.0000   1.0000   1.0000   1.0000
     1.0000   1.0000   1.0000   1.0000   1.0000   1.0000   1.0001   1.0001
     1.0001   1.0001   1.0018   1.0019   1.0028   1.0030   1.0057   1.0058
     1.0372   1.0376   1.0637   1.0649   1.0821   1.0822   0.9733   0.9725
     0.5498   0.5280   0.2161   0.2153   0.0000   0.0000   0.0000   0.0000
     0.0000   0.0000   0.0000   0.0000   0.0000   0.0000   0.0000   0.0000
     0.0000   0.0000

          k = 0.0000 0.3464 0.0000 ( 10000 PWs)   bands (ev):

   -92.0432 -92.0407 -91.9448 -91.9416 -91.6763 -91.6745 -90.9525 -90.9515
   -90.7120 -90.7117 -52.6512 -52.6485 -52.5970 -52.5944 -52.5366 -52.5338
   -52.5010 -52.4985 -52.4614 -52.4583 -52.3867 -52.3835 -52.2447 -52.2429
   -52.1930 -52.1912 -52.1662 -52.1644 -51.5524 -51.5514 -51.5345 -51.5336
   -51.4512 -51.4502 -51.3308 -51.3305 -51.2529 -51.2526 -51.2128 -51.2124
    -7.7085  -7.7016  -6.8373   2.2480   2.2515   3.0061   3.9500   4.0715
     5.2452   5.2466   5.3101   5.3239   5.8554   5.9694   6.0448   6.2709
     6.9135   6.9370   7.4309   7.4371   7.7862   7.7891   7.9844   7.9863
     8.3472   8.3498   8.5603   8.5623   8.7917   8.7939   8.9892   8.9907
     9.1816   9.1837   9.2202   9.2227   9.4468   9.4503   9.7220   9.7251
     9.8122   9.8144   9.9624   9.9638  10.0892  10.0913  10.1032  10.1037
    10.2701  10.2728  10.4151  10.4175  10.5138  10.5203  10.5582  10.5597
    10.7853  10.7873  11.0191  11.0226  11.1094  11.1103  11.3613  11.3619
    11.6734  11.6745  11.6751  11.6847  13.2015  13.2218  15.2732  15.3175
    16.4361  16.6780  16.9675  17.0282  18.4316  18.7806  19.2479  19.2723
    19.6169  20.4470

     occupation numbers 
     1.0000   1.0000   1.0000   1.0000   1.0000   1.0000   1.0000   1.0000
     1.0000   1.0000   1.0000   1.0000   1.0000   1.0000   1.0000   1.0000
     1.0000   1.0000   1.0000   1.0000   1.0000   1.0000   1.0000   1.0000
     1.0000   1.0000   1.0000   1.0000   1.0000   1.0000   1.0000   1.0000
     1.0000   1.0000   1.0000   1.0000   1.0000   1.0000   1.0000   1.0000
     1.0000   1.0000   1.0000   1.0000   1.0000   1.0000   1.0000   1.0000
     1.0000   1.0000   1.0000   1.0000   1.0000   1.0000   1.0000   1.0000
     1.0000   1.0000   1.0000   1.0000   1.0000   1.0000   1.0000   1.0000
     1.0000   1.0000   1.0000   1.0000   1.0000   1.0000   1.0000   1.0000
     1.0000   1.0000   1.0000   1.0000   1.0000   1.0000   1.0000   1.0000
     1.0000   1.0000   1.0000   1.0000   1.0001   1.0001   1.0001   1.0001
     1.0009   1.0010   1.0043   1.0044   1.0103   1.0108   1.0146   1.0147
     1.0560   1.0565   1.0773   1.0766   1.0396   1.0390   0.7156   0.7147
     0.2042   0.2030   0.2022   0.1916   0.0000   0.0000   0.0000   0.0000
     0.0000   0.0000   0.0000   0.0000   0.0000   0.0000   0.0000   0.0000
     0.0000   0.0000

          k = 0.0000 0.4041 0.0000 ( 10044 PWs)   bands (ev):

   -92.0400 -92.0375 -91.9420 -91.9388 -91.6733 -91.6715 -90.9493 -90.9483
   -90.7090 -90.7087 -52.6466 -52.6439 -52.6142 -52.6116 -52.5431 -52.5402
   -52.5068 -52.5043 -52.4811 -52.4780 -52.3921 -52.3889 -52.2663 -52.2645
   -52.1909 -52.1891 -52.1717 -52.1699 -51.5610 -51.5601 -51.5469 -51.5459
   -51.4571 -51.4561 -51.3518 -51.3515 -51.2585 -51.2582 -51.2115 -51.2112
    -7.2033  -7.1974  -6.3357   1.2141   1.2197   1.9823   4.6573   4.7612
     4.9123   4.9137   5.5200   5.9840   5.9933   6.4752   6.4990   6.8470
     7.0253   7.0831   7.4133   7.4238   7.6600   7.6690   7.9393   7.9411
     8.2442   8.2475   8.5731   8.5747   8.8451   8.8487   9.0272   9.0291
     9.1658   9.1682   9.2357   9.2376   9.5405   9.5428   9.8118   9.8139
     9.8656   9.8675  10.1866  10.1909  10.2190  10.2209  10.4403  10.4433
    10.4555  10.4580  10.5332  10.5359  10.7043  10.7060  10.7672  10.7711
    10.8476  10.8496  11.3067  11.3076  11.3118  11.3137  11.5523  11.5528
    11.7048  11.7055  11.9201  11.9289  13.6400  13.6498  15.3266  15.5357
    15.8667  16.5253  17.1092  17.7292  18.2615  18.9433  19.0809  19.1993
    19.6648  19.7976

     occupation numbers 
     1.0000   1.0000   1.0000   1.0000   1.0000   1.0000   1.0000   1.0000
     1.0000   1.0000   1.0000   1.0000   1.0000   1.0000   1.0000   1.0000
     1.0000   1.0000   1.0000   1.0000   1.0000   1.0000   1.0000   1.0000
     1.0000   1.0000   1.0000   1.0000   1.0000   1.0000   1.0000   1.0000
     1.0000   1.0000   1.0000   1.0000   1.0000   1.0000   1.0000   1.0000
     1.0000   1.0000   1.0000   1.0000   1.0000   1.0000   1.0000   1.0000
     1.0000   1.0000   1.0000   1.0000   1.0000   1.0000   1.0000   1.0000
     1.0000   1.0000   1.0000   1.0000   1.0000   1.0000   1.0000   1.0000
     1.0000   1.0000   1.0000   1.0000   1.0000   1.0000   1.0000   1.0000
     1.0000   1.0000   1.0000   1.0000   1.0000   1.0000   1.0000   1.0000
     1.0000   1.0000   1.0003   1.0004   1.0005   1.0005   1.0054   1.0056
     1.0062   1.0064   1.0120   1.0123   1.0380   1.0383   1.0519   1.0528
     1.0698   1.0702   0.8093   0.8078   0.8008   0.7977   0.3739   0.3730
     0.1701   0.1695   0.0363   0.0337   0.0000   0.0000   0.0000   0.0000
     0.0000   0.0000   0.0000   0.0000   0.0000   0.0000   0.0000   0.0000
     0.0000   0.0000

          k = 0.0000 0.4619 0.0000 ( 10060 PWs)   bands (ev):

   -92.0374 -92.0349 -91.9397 -91.9365 -91.6709 -91.6691 -90.9468 -90.9458
   -90.7065 -90.7063 -52.6482 -52.6455 -52.6235 -52.6210 -52.5479 -52.5449
   -52.5115 -52.5090 -52.4961 -52.4930 -52.3963 -52.3932 -52.2834 -52.2816
   -52.1893 -52.1875 -52.1761 -52.1743 -51.5785 -51.5775 -51.5464 -51.5455
   -51.4618 -51.4608 -51.3680 -51.3677 -51.2630 -51.2627 -51.2106 -51.2103
    -6.7182  -6.7133  -5.8531   0.3335   0.3412   1.1080   4.6636   4.6651
     5.2696   5.3352   5.4182   6.4752   6.4816   6.7757   6.7813   7.0764
     7.0973   7.3358   7.3539   7.4879   7.5748   7.6876   7.8624   7.8641
     8.1423   8.1498   8.4783   8.4802   8.8270   8.8309   9.1159   9.1184
     9.1979   9.2002   9.3387   9.3435   9.7315   9.7331   9.7896   9.7916
     9.9252   9.9264  10.2592  10.2610  10.5849  10.5921  10.6119  10.6144
    10.6746  10.6773  10.7734  10.7778  10.7967  10.7989  10.9561  10.9579
    11.2074  11.2090  11.4563  11.4571  11.6703  11.6711  11.7390  11.7406
    11.8074  11.8078  12.2532  12.2552  13.8045  13.8430  14.6671  15.4046
    15.6605  16.6574  17.0440  18.0684  18.2083  18.2961  18.4012  18.8146
    18.9209  19.2238

     occupation numbers 
     1.0000   1.0000   1.0000   1.0000   1.0000   1.0000   1.0000   1.0000
     1.0000   1.0000   1.0000   1.0000   1.0000   1.0000   1.0000   1.0000
     1.0000   1.0000   1.0000   1.0000   1.0000   1.0000   1.0000   1.0000
     1.0000   1.0000   1.0000   1.0000   1.0000   1.0000   1.0000   1.0000
     1.0000   1.0000   1.0000   1.0000   1.0000   1.0000   1.0000   1.0000
     1.0000   1.0000   1.0000   1.0000   1.0000   1.0000   1.0000   1.0000
     1.0000   1.0000   1.0000   1.0000   1.0000   1.0000   1.0000   1.0000
     1.0000   1.0000   1.0000   1.0000   1.0000   1.0000   1.0000   1.0000
     1.0000   1.0000   1.0000   1.0000   1.0000   1.0000   1.0000   1.0000
     1.0000   1.0000   1.0000   1.0000   1.0000   1.0000   1.0000   1.0000
     1.0000   1.0000   1.0008   1.0008   1.0178   1.0187   1.0215   1.0218
     1.0321   1.0326   1.0533   1.0543   1.0587   1.0592   1.0833   1.0833
     0.9503   0.9484   0.5418   0.5402   0.2078   0.2069   0.1379   0.1364
     0.0870   0.0867   0.0012   0.0011   0.0000   0.0000   0.0000   0.0000
     0.0000   0.0000   0.0000   0.0000   0.0000   0.0000   0.0000   0.0000
     0.0000   0.0000

          k = 0.0000 0.5196 0.0000 ( 10058 PWs)   bands (ev):

   -92.0358 -92.0333 -91.9382 -91.9351 -91.6694 -91.6676 -90.9451 -90.9442
   -90.7050 -90.7047 -52.6540 -52.6513 -52.6252 -52.6226 -52.5509 -52.5478
   -52.5144 -52.5119 -52.5054 -52.5023 -52.3991 -52.3959 -52.2943 -52.2924
   -52.1883 -52.1864 -52.1789 -52.1771 -51.5901 -51.5891 -51.5459 -51.5450
   -51.4648 -51.4638 -51.3781 -51.3778 -51.2658 -51.2655 -51.2101 -51.2098
    -6.3436  -6.3397  -5.4797  -0.2852  -0.2757   0.4934   4.5103   4.5118
     5.1153   5.8530   5.9123   6.7005   6.7043   6.8917   6.8999   7.2112
     7.2158   7.3198   7.3264   7.5107   7.5419   7.8023   7.8035   8.0220
     8.0598   8.1754   8.3674   8.3696   8.7509   8.7556   9.0822   9.0847
     9.2959   9.2978   9.5200   9.5274   9.7374   9.7400   9.7701   9.7721
    10.1586  10.1605  10.2640  10.2658  10.7120  10.7141  10.7556  10.7581
    10.7850  10.7923  10.8632  10.8660  11.0634  11.0652  11.1229  11.1245
    11.5226  11.5234  11.5847  11.5877  11.7396  11.7405  11.9224  11.9228
    12.1502  12.1625  12.8792  12.8894  13.6796  13.8023  14.1744  15.0454
    15.0891  16.2719  16.6239  17.7905  17.8164  18.0358  18.1850  18.4992
    18.5675  19.1738

     occupation numbers 
     1.0000   1.0000   1.0000   1.0000   1.0000   1.0000   1.0000   1.0000
     1.0000   1.0000   1.0000   1.0000   1.0000   1.0000   1.0000   1.0000
     1.0000   1.0000   1.0000   1.0000   1.0000   1.0000   1.0000   1.0000
     1.0000   1.0000   1.0000   1.0000   1.0000   1.0000   1.0000   1.0000
     1.0000   1.0000   1.0000   1.0000   1.0000   1.0000   1.0000   1.0000
     1.0000   1.0000   1.0000   1.0000   1.0000   1.0000   1.0000   1.0000
     1.0000   1.0000   1.0000   1.0000   1.0000   1.0000   1.0000   1.0000
     1.0000   1.0000   1.0000   1.0000   1.0000   1.0000   1.0000   1.0000
     1.0000   1.0000   1.0000   1.0000   1.0000   1.0000   1.0000   1.0000
     1.0000   1.0000   1.0000   1.0000   1.0000   1.0000   1.0000   1.0000
     1.0002   1.0002   1.0009   1.0009   1.0396   1.0400   1.0492   1.0498
     1.0560   1.0577   1.0729   1.0734   1.0637   1.0629   1.0304   1.0293
     0.4234   0.4221   0.3228   0.3183   0.1373   0.1365   0.0356   0.0355
     0.0039   0.0034   0.0000   0.0000   0.0000   0.0000   0.0000   0.0000
     0.0000   0.0000   0.0000   0.0000   0.0000   0.0000   0.0000   0.0000
     0.0000   0.0000

          k = 0.0000-0.5774 0.0000 ( 10028 PWs)   bands (ev):

   -92.0352 -92.0327 -91.9377 -91.9346 -91.6689 -91.6670 -90.9446 -90.9436
   -90.7045 -90.7042 -52.6567 -52.6540 -52.6251 -52.6225 -52.5518 -52.5488
   -52.5154 -52.5129 -52.5086 -52.5055 -52.4000 -52.3969 -52.2980 -52.2962
   -52.1879 -52.1861 -52.1799 -52.1780 -51.5941 -51.5932 -51.5458 -51.5449
   -51.4658 -51.4648 -51.3815 -51.3812 -51.2668 -51.2665 -51.2099 -51.2096
    -6.1978  -6.1941  -5.3340  -0.5136  -0.5033   0.2664   4.4586   4.4601
     5.0632   6.0478   6.0952   6.7493   6.7520   6.9328   6.9432   7.2372
     7.2398   7.3584   7.3620   7.5094   7.5413   7.7830   7.7839   8.0045
     8.0192   8.3070   8.3098   8.3610   8.7187   8.7255   9.0704   9.0729
     9.3228   9.3247   9.6389   9.6434   9.6832   9.6890   9.7628   9.7647
    10.2635  10.2653  10.2791  10.2810  10.7334  10.7353  10.7889  10.7916
    10.8057  10.8119  10.8944  10.8973  11.1048  11.1066  11.3730  11.3768
    11.5369  11.5377  11.5640  11.5830  11.7697  11.7706  11.9663  11.9666
    12.4356  12.4635  13.3962  13.4407  13.8401  13.9970  14.0061  14.1841
    14.1851  16.1599  16.5043  17.6608  17.6753  17.9696  18.1044  18.3885
    18.4539  19.1433

     occupation numbers 
     1.0000   1.0000   1.0000   1.0000   1.0000   1.0000   1.0000   1.0000
     1.0000   1.0000   1.0000   1.0000   1.0000   1.0000   1.0000   1.0000
     1.0000   1.0000   1.0000   1.0000   1.0000   1.0000   1.0000   1.0000
     1.0000   1.0000   1.0000   1.0000   1.0000   1.0000   1.0000   1.0000
     1.0000   1.0000   1.0000   1.0000   1.0000   1.0000   1.0000   1.0000
     1.0000   1.0000   1.0000   1.0000   1.0000   1.0000   1.0000   1.0000
     1.0000   1.0000   1.0000   1.0000   1.0000   1.0000   1.0000   1.0000
     1.0000   1.0000   1.0000   1.0000   1.0000   1.0000   1.0000   1.0000
     1.0000   1.0000   1.0000   1.0000   1.0000   1.0000   1.0000   1.0000
     1.0000   1.0000   1.0000   1.0000   1.0000   1.0000   1.0000   1.0000
     1.0009   1.0009   1.0010   1.0011   1.0442   1.0446   1.0569   1.0575
     1.0607   1.0621   1.0782   1.0786   1.0425   1.0414   0.6948   0.6879
     0.3992   0.3979   0.3550   0.3254   0.1128   0.1121   0.0243   0.0242
     0.0001   0.0001   0.0000   0.0000   0.0000   0.0000   0.0000   0.0000
     0.0000   0.0000   0.0000   0.0000   0.0000   0.0000   0.0000   0.0000
     0.0000   0.0000

          k = 0.0500 0.0866 0.0000 (  9955 PWs)   bands (ev):

   -92.0566 -92.0541 -91.9568 -91.9536 -91.6888 -91.6869 -90.9658 -90.9648
   -90.7246 -90.7244 -52.6796 -52.6768 -52.5476 -52.5447 -52.4839 -52.4814
   -52.4768 -52.4743 -52.3728 -52.3696 -52.3643 -52.3611 -52.2036 -52.2018
   -52.1517 -52.1499 -52.1432 -52.1414 -51.5651 -51.5642 -51.4360 -51.4350
   -51.4266 -51.4256 -51.2384 -51.2381 -51.2296 -51.2293 -51.2194 -51.2191
    -9.2104  -9.2007  -8.3252   1.8120   1.9302   2.9069   2.9326   3.8393
     3.9773   4.3120   5.4343   5.4843   6.3251   6.3468   6.7539   6.7560
     6.9004   6.9017   6.9777   6.9790   7.3059   7.6060   8.7444   8.7474
     8.9026   8.9053   8.9225   8.9251   9.0771   9.0795   9.1452   9.1480
     9.1746   9.1768   9.2824   9.2846   9.4149   9.4171   9.5270   9.5305
     9.7214   9.7227   9.8778   9.8791   9.9864   9.9872  10.0014  10.0026
    10.0567  10.0588  10.0989  10.1010  10.1833  10.1841  10.4135  10.4158
    10.4544  10.4587  10.7269  10.7287  10.8065  10.8111  10.9013  10.9061
    11.1136  11.1169  11.3155  11.3244  11.6481  11.6491  12.5454  12.5741
    14.1015  14.6396  16.4658  16.9658  18.1394  18.8962  19.6515  20.1055
    20.1122  20.2134

     occupation numbers 
     1.0000   1.0000   1.0000   1.0000   1.0000   1.0000   1.0000   1.0000
     1.0000   1.0000   1.0000   1.0000   1.0000   1.0000   1.0000   1.0000
     1.0000   1.0000   1.0000   1.0000   1.0000   1.0000   1.0000   1.0000
     1.0000   1.0000   1.0000   1.0000   1.0000   1.0000   1.0000   1.0000
     1.0000   1.0000   1.0000   1.0000   1.0000   1.0000   1.0000   1.0000
     1.0000   1.0000   1.0000   1.0000   1.0000   1.0000   1.0000   1.0000
     1.0000   1.0000   1.0000   1.0000   1.0000   1.0000   1.0000   1.0000
     1.0000   1.0000   1.0000   1.0000   1.0000   1.0000   1.0000   1.0000
     1.0000   1.0000   1.0000   1.0000   1.0000   1.0000   1.0000   1.0000
     1.0000   1.0000   1.0000   1.0000   1.0000   1.0000   1.0000   1.0000
     1.0000   1.0000   1.0000   1.0000   1.0000   1.0000   1.0000   1.0000
     1.0001   1.0001   1.0001   1.0001   1.0003   1.0003   1.0042   1.0043
     1.0062   1.0064   1.0428   1.0432   1.0609   1.0619   1.0791   1.0798
     1.0369   1.0347   0.7948   0.7799   0.2348   0.2335   0.0000   0.0000
     0.0000   0.0000   0.0000   0.0000   0.0000   0.0000   0.0000   0.0000
     0.0000   0.0000

          k = 0.0500 0.1443 0.0000 (  9949 PWs)   bands (ev):

   -92.0545 -92.0520 -91.9549 -91.9517 -91.6868 -91.6850 -90.9637 -90.9628
   -90.7227 -90.7224 -52.6751 -52.6723 -52.5511 -52.5482 -52.4958 -52.4933
   -52.4808 -52.4783 -52.3868 -52.3837 -52.3680 -52.3649 -52.2021 -52.2003
   -52.1660 -52.1641 -52.1470 -52.1452 -51.5627 -51.5618 -51.4515 -51.4506
   -51.4307 -51.4297 -51.2529 -51.2526 -51.2334 -51.2332 -51.2181 -51.2178
    -9.0164  -9.0070  -8.1332   2.0930   2.2125   3.2339   3.2581   4.1357
     4.2802   4.5756   5.6420   5.7020   5.9202   5.9218   6.6080   6.6222
     6.6236   6.7401   6.7509   7.1212   7.1224   7.2515   8.5829   8.5857
     8.7574   8.7601   8.8310   8.8334   9.0891   9.0914   9.1538   9.1562
     9.2110   9.2133   9.2828   9.2854   9.3315   9.3335   9.5455   9.5477
     9.6242   9.6255   9.9027   9.9043   9.9155   9.9170   9.9534   9.9543
    10.0587  10.0606  10.0901  10.0922  10.2824  10.2833  10.4182  10.4204
    10.5010  10.5065  10.6155  10.6191  10.7331  10.7349  10.9666  10.9712
    11.1421  11.1462  11.5452  11.5514  11.7690  11.7800  13.1182  13.1625
    14.5227  15.0020  16.7637  17.1463  18.3677  18.7933  19.7273  20.0212
    20.0365  20.2709

     occupation numbers 
     1.0000   1.0000   1.0000   1.0000   1.0000   1.0000   1.0000   1.0000
     1.0000   1.0000   1.0000   1.0000   1.0000   1.0000   1.0000   1.0000
     1.0000   1.0000   1.0000   1.0000   1.0000   1.0000   1.0000   1.0000
     1.0000   1.0000   1.0000   1.0000   1.0000   1.0000   1.0000   1.0000
     1.0000   1.0000   1.0000   1.0000   1.0000   1.0000   1.0000   1.0000
     1.0000   1.0000   1.0000   1.0000   1.0000   1.0000   1.0000   1.0000
     1.0000   1.0000   1.0000   1.0000   1.0000   1.0000   1.0000   1.0000
     1.0000   1.0000   1.0000   1.0000   1.0000   1.0000   1.0000   1.0000
     1.0000   1.0000   1.0000   1.0000   1.0000   1.0000   1.0000   1.0000
     1.0000   1.0000   1.0000   1.0000   1.0000   1.0000   1.0000   1.0000
     1.0000   1.0000   1.0000   1.0000   1.0000   1.0000   1.0000   1.0000
     1.0001   1.0001   1.0001   1.0001   1.0011   1.0011   1.0044   1.0045
     1.0092   1.0097   1.0220   1.0226   1.0442   1.0446   1.0832   1.0831
     1.0157   1.0123   0.3854   0.3753   0.1133   0.1052   0.0000   0.0000
     0.0000   0.0000   0.0000   0.0000   0.0000   0.0000   0.0000   0.0000
     0.0000   0.0000

          k = 0.0500 0.2021 0.0000 (  9957 PWs)   bands (ev):

   -92.0516 -92.0491 -91.9523 -91.9492 -91.6841 -91.6823 -90.9609 -90.9599
   -90.7200 -90.7197 -52.6688 -52.6661 -52.5581 -52.5553 -52.5103 -52.5077
   -52.4863 -52.4838 -52.4059 -52.4028 -52.3732 -52.3700 -52.2005 -52.1987
   -52.1850 -52.1832 -52.1522 -52.1504 -51.5596 -51.5586 -51.4727 -51.4717
   -51.4363 -51.4353 -51.2727 -51.2724 -51.2388 -51.2385 -51.2165 -51.2162
    -8.7304  -8.7216  -7.8502   2.5038   2.6236   3.7099   3.7321   4.5386
     4.7072   4.8817   4.9349   5.0625   5.6890   6.0998   6.1281   6.1912
     6.1929   6.8116   6.9923   7.0022   7.4177   7.4189   8.3808   8.3834
     8.5839   8.5864   8.7286   8.7309   8.9495   8.9520   9.0682   9.0699
     9.1997   9.2016   9.2709   9.2731   9.4551   9.4578   9.5274   9.5289
     9.7138   9.7160   9.7857   9.7870   9.8359   9.8374   9.9280   9.9300
    10.0878  10.0907  10.1804  10.1821  10.3713  10.3728  10.3967  10.3989
    10.5484  10.5499  10.6176  10.6238  10.7635  10.7651  11.0539  11.0565
    11.2230  11.2308  11.6124  11.6141  12.1209  12.1419  13.7413  13.8031
    15.1048  15.5027  17.1413  17.3998  18.3933  18.7703  19.6974  19.8704
    19.9415  20.2840

     occupation numbers 
     1.0000   1.0000   1.0000   1.0000   1.0000   1.0000   1.0000   1.0000
     1.0000   1.0000   1.0000   1.0000   1.0000   1.0000   1.0000   1.0000
     1.0000   1.0000   1.0000   1.0000   1.0000   1.0000   1.0000   1.0000
     1.0000   1.0000   1.0000   1.0000   1.0000   1.0000   1.0000   1.0000
     1.0000   1.0000   1.0000   1.0000   1.0000   1.0000   1.0000   1.0000
     1.0000   1.0000   1.0000   1.0000   1.0000   1.0000   1.0000   1.0000
     1.0000   1.0000   1.0000   1.0000   1.0000   1.0000   1.0000   1.0000
     1.0000   1.0000   1.0000   1.0000   1.0000   1.0000   1.0000   1.0000
     1.0000   1.0000   1.0000   1.0000   1.0000   1.0000   1.0000   1.0000
     1.0000   1.0000   1.0000   1.0000   1.0000   1.0000   1.0000   1.0000
     1.0000   1.0000   1.0000   1.0000   1.0000   1.0000   1.0000   1.0000
     1.0001   1.0001   1.0003   1.0003   1.0028   1.0028   1.0036   1.0037
     1.0135   1.0137   1.0223   1.0233   1.0510   1.0514   1.0674   1.0664
     0.9312   0.9212   0.2824   0.2800   0.0053   0.0042   0.0000   0.0000
     0.0000   0.0000   0.0000   0.0000   0.0000   0.0000   0.0000   0.0000
     0.0000   0.0000

          k = 0.0500 0.2598 0.0000 (  9976 PWs)   bands (ev):

   -92.0482 -92.0457 -91.9493 -91.9461 -91.6810 -91.6792 -90.9575 -90.9566
   -90.7168 -90.7165 -52.6615 -52.6587 -52.5705 -52.5678 -52.5235 -52.5208
   -52.4927 -52.4902 -52.4280 -52.4249 -52.3792 -52.3760 -52.2102 -52.2084
   -52.1957 -52.1939 -52.1584 -52.1566 -51.5561 -51.5552 -51.4973 -51.4964
   -51.4429 -51.4420 -51.2957 -51.2954 -51.2450 -51.2447 -51.2149 -51.2146
    -8.3600  -8.3519  -7.4833   3.0309   3.1461   3.8744   3.8850   4.3154
     4.3320   4.6450   5.1219   5.2504   5.4681   5.7272   5.7300   6.3503
     6.5051   6.5307   7.2645   7.2713   7.7087   7.7100   8.1644   8.1669
     8.4507   8.4532   8.6151   8.6173   8.8473   8.8499   8.9591   8.9606
     9.1413   9.1433   9.2762   9.2785   9.4539   9.4557   9.6415   9.6437
     9.6664   9.6686   9.7384   9.7395   9.9165   9.9186   9.9997  10.0020
    10.1188  10.1215  10.2995  10.3015  10.3409  10.3437  10.4388  10.4401
    10.6694  10.6710  10.7286  10.7346  10.8629  10.8642  11.1593  11.1602
    11.3761  11.3859  11.6428  11.6445  12.5501  12.5741  14.3880  14.4595
    15.8092  16.0995  17.2801  17.7922  17.8937  19.0768  19.5173  19.5758
    19.8001  20.1209

     occupation numbers 
     1.0000   1.0000   1.0000   1.0000   1.0000   1.0000   1.0000   1.0000
     1.0000   1.0000   1.0000   1.0000   1.0000   1.0000   1.0000   1.0000
     1.0000   1.0000   1.0000   1.0000   1.0000   1.0000   1.0000   1.0000
     1.0000   1.0000   1.0000   1.0000   1.0000   1.0000   1.0000   1.0000
     1.0000   1.0000   1.0000   1.0000   1.0000   1.0000   1.0000   1.0000
     1.0000   1.0000   1.0000   1.0000   1.0000   1.0000   1.0000   1.0000
     1.0000   1.0000   1.0000   1.0000   1.0000   1.0000   1.0000   1.0000
     1.0000   1.0000   1.0000   1.0000   1.0000   1.0000   1.0000   1.0000
     1.0000   1.0000   1.0000   1.0000   1.0000   1.0000   1.0000   1.0000
     1.0000   1.0000   1.0000   1.0000   1.0000   1.0000   1.0000   1.0000
     1.0000   1.0000   1.0000   1.0000   1.0000   1.0000   1.0000   1.0000
     1.0001   1.0001   1.0013   1.0013   1.0020   1.0021   1.0053   1.0054
     1.0311   1.0314   1.0432   1.0445   1.0729   1.0731   1.0008   0.9999
     0.6891   0.6713   0.2415   0.2393   0.0000   0.0000   0.0000   0.0000
     0.0000   0.0000   0.0000   0.0000   0.0000   0.0000   0.0000   0.0000
     0.0000   0.0000

          k = 0.0500 0.3175 0.0000 (  9991 PWs)   bands (ev):

   -92.0447 -92.0422 -91.9462 -91.9430 -91.6777 -91.6759 -90.9540 -90.9530
   -90.7134 -90.7131 -52.6540 -52.6512 -52.5878 -52.5852 -52.5334 -52.5306
   -52.4994 -52.4969 -52.4507 -52.4475 -52.3855 -52.3823 -52.2334 -52.2316
   -52.1940 -52.1921 -52.1649 -52.1631 -51.5531 -51.5521 -51.5228 -51.5218
   -51.4499 -51.4489 -51.3195 -51.3192 -51.2516 -51.2513 -51.2133 -51.2130
    -7.9178  -7.9106  -7.0450   2.7873   2.7897   3.5208   3.6566   3.8041
     5.0051   5.0209   5.2930   5.2944   5.7197   5.8200   5.9151   6.0242
     6.8417   6.8639   7.4389   7.4443   7.8430   7.8450   8.0187   8.0208
     8.3836   8.3864   8.5249   8.5268   8.8067   8.8089   8.9370   8.9386
     9.1069   9.1095   9.2474   9.2497   9.4256   9.4284   9.6057   9.6080
     9.7798   9.7807   9.8287   9.8309  10.0029  10.0046  10.1275  10.1290
    10.2283  10.2308  10.3457  10.3500  10.4531  10.4554  10.5239  10.5253
    10.7717  10.7735  10.8835  10.8887  11.0442  11.0451  11.3282  11.3288
    11.5479  11.5542  11.6995  11.7049  13.0177  13.0401  15.0344  15.0946
    16.5642  16.6529  16.9978  17.0544  18.5438  18.7639  19.4097  19.4111
    19.7018  20.3120

     occupation numbers 
     1.0000   1.0000   1.0000   1.0000   1.0000   1.0000   1.0000   1.0000
     1.0000   1.0000   1.0000   1.0000   1.0000   1.0000   1.0000   1.0000
     1.0000   1.0000   1.0000   1.0000   1.0000   1.0000   1.0000   1.0000
     1.0000   1.0000   1.0000   1.0000   1.0000   1.0000   1.0000   1.0000
     1.0000   1.0000   1.0000   1.0000   1.0000   1.0000   1.0000   1.0000
     1.0000   1.0000   1.0000   1.0000   1.0000   1.0000   1.0000   1.0000
     1.0000   1.0000   1.0000   1.0000   1.0000   1.0000   1.0000   1.0000
     1.0000   1.0000   1.0000   1.0000   1.0000   1.0000   1.0000   1.0000
     1.0000   1.0000   1.0000   1.0000   1.0000   1.0000   1.0000   1.0000
     1.0000   1.0000   1.0000   1.0000   1.0000   1.0000   1.0000   1.0000
     1.0000   1.0000   1.0000   1.0000   1.0000   1.0000   1.0002   1.0002
     1.0006   1.0006   1.0021   1.0022   1.0061   1.0062   1.0111   1.0113
     1.0529   1.0533   1.0765   1.0773   1.0707   1.0704   0.7735   0.7725
     0.3810   0.3708   0.1757   0.1701   0.0000   0.0000   0.0000   0.0000
     0.0000   0.0000   0.0000   0.0000   0.0000   0.0000   0.0000   0.0000
     0.0000   0.0000

          k = 0.0500 0.3753 0.0000 ( 10031 PWs)   bands (ev):

   -92.0413 -92.0388 -91.9431 -91.9400 -91.6745 -91.6727 -90.9506 -90.9497
   -90.7102 -90.7099 -52.6478 -52.6450 -52.6061 -52.6035 -52.5407 -52.5378
   -52.5058 -52.5033 -52.4715 -52.4683 -52.3915 -52.3883 -52.2559 -52.2541
   -52.1918 -52.1900 -52.1710 -52.1692 -51.5534 -51.5525 -51.5440 -51.5430
   -51.4564 -51.4555 -51.3416 -51.3413 -51.2578 -51.2576 -51.2120 -51.2117
    -7.4261  -7.4198  -6.5570   1.7243   1.7289   2.4874   4.3461   4.4578
     4.9184   4.9197   5.5375   5.7112   5.7225   6.2906   6.3356   6.6093
     7.0208   7.0485   7.4684   7.4751   7.7371   7.7415   7.9965   7.9984
     8.3079   8.3109   8.5634   8.5652   8.7817   8.7844   8.9759   8.9774
     9.1364   9.1388   9.1970   9.1992   9.4360   9.4391   9.7419   9.7442
     9.8528   9.8550   9.9980   9.9995  10.1296  10.1305  10.2237  10.2255
    10.4078  10.4117  10.5084  10.5111  10.5803  10.5835  10.6946  10.6965
    10.8781  10.8801  11.0821  11.0852  11.2567  11.2575  11.5439  11.5448
    11.6434  11.6443  11.8943  11.9032  13.4996  13.5152  15.5208  15.5346
    16.0450  16.5619  17.1095  17.4706  18.3545  19.0405  19.3541  19.4128
    19.8567  20.4050

     occupation numbers 
     1.0000   1.0000   1.0000   1.0000   1.0000   1.0000   1.0000   1.0000
     1.0000   1.0000   1.0000   1.0000   1.0000   1.0000   1.0000   1.0000
     1.0000   1.0000   1.0000   1.0000   1.0000   1.0000   1.0000   1.0000
     1.0000   1.0000   1.0000   1.0000   1.0000   1.0000   1.0000   1.0000
     1.0000   1.0000   1.0000   1.0000   1.0000   1.0000   1.0000   1.0000
     1.0000   1.0000   1.0000   1.0000   1.0000   1.0000   1.0000   1.0000
     1.0000   1.0000   1.0000   1.0000   1.0000   1.0000   1.0000   1.0000
     1.0000   1.0000   1.0000   1.0000   1.0000   1.0000   1.0000   1.0000
     1.0000   1.0000   1.0000   1.0000   1.0000   1.0000   1.0000   1.0000
     1.0000   1.0000   1.0000   1.0000   1.0000   1.0000   1.0000   1.0000
     1.0000   1.0000   1.0000   1.0000   1.0002   1.0002   1.0005   1.0006
     1.0040   1.0041   1.0098   1.0100   1.0172   1.0176   1.0360   1.0364
     1.0756   1.0759   1.0552   1.0536   0.8859   0.8847   0.3876   0.3861
     0.2408   0.2396   0.0449   0.0417   0.0000   0.0000   0.0000   0.0000
     0.0000   0.0000   0.0000   0.0000   0.0000   0.0000   0.0000   0.0000
     0.0000   0.0000

          k = 0.0500 0.4330 0.0000 ( 10043 PWs)   bands (ev):

   -92.0384 -92.0359 -91.9406 -91.9374 -91.6718 -91.6700 -90.9478 -90.9468
   -90.7075 -90.7072 -52.6457 -52.6430 -52.6196 -52.6171 -52.5464 -52.5435
   -52.5113 -52.5087 -52.4885 -52.4854 -52.3966 -52.3934 -52.2749 -52.2731
   -52.1899 -52.1881 -52.1763 -52.1744 -51.5696 -51.5686 -51.5465 -51.5456
   -51.4620 -51.4611 -51.3600 -51.3597 -51.2631 -51.2629 -51.2109 -51.2106
    -6.9244  -6.9192  -6.0584   0.7665   0.7731   1.5368   4.6213   4.6228
     5.0487   5.1396   5.2421   6.3091   6.3165   6.6950   6.7055   7.0463
     7.0900   7.2836   7.4162   7.4389   7.6345   7.6586   7.9269   7.9286
     8.2086   8.2133   8.5327   8.5343   8.8414   8.8455   9.0524   9.0549
     9.1106   9.1130   9.2521   9.2542   9.5743   9.5764   9.7860   9.7877
     9.9023   9.9040  10.1639  10.1664  10.3085  10.3112  10.5176  10.5205
    10.5588  10.5607  10.6935  10.6960  10.7538  10.7575  10.8789  10.8815
    11.1105  11.1121  11.3386  11.3400  11.4472  11.4480  11.6858  11.6868
    11.8206  11.8216  12.2217  12.2265  13.8602  13.8672  14.9906  15.4998
    15.8306  16.7063  17.1547  18.1307  18.4710  18.6880  18.7454  19.1914
    19.3837  19.4865

     occupation numbers 
     1.0000   1.0000   1.0000   1.0000   1.0000   1.0000   1.0000   1.0000
     1.0000   1.0000   1.0000   1.0000   1.0000   1.0000   1.0000   1.0000
     1.0000   1.0000   1.0000   1.0000   1.0000   1.0000   1.0000   1.0000
     1.0000   1.0000   1.0000   1.0000   1.0000   1.0000   1.0000   1.0000
     1.0000   1.0000   1.0000   1.0000   1.0000   1.0000   1.0000   1.0000
     1.0000   1.0000   1.0000   1.0000   1.0000   1.0000   1.0000   1.0000
     1.0000   1.0000   1.0000   1.0000   1.0000   1.0000   1.0000   1.0000
     1.0000   1.0000   1.0000   1.0000   1.0000   1.0000   1.0000   1.0000
     1.0000   1.0000   1.0000   1.0000   1.0000   1.0000   1.0000   1.0000
     1.0000   1.0000   1.0000   1.0000   1.0000   1.0000   1.0000   1.0000
     1.0000   1.0000   1.0003   1.0003   1.0014   1.0015   1.0106   1.0108
     1.0146   1.0149   1.0358   1.0363   1.0488   1.0496   1.0757   1.0762
     1.0389   1.0378   0.7556   0.7531   0.5584   0.5569   0.1903   0.1892
     0.0791   0.0785   0.0017   0.0016   0.0000   0.0000   0.0000   0.0000
     0.0000   0.0000   0.0000   0.0000   0.0000   0.0000   0.0000   0.0000
     0.0000   0.0000

          k = 0.0500 0.4907 0.0000 ( 10062 PWs)   bands (ev):

   -92.0363 -92.0338 -91.9387 -91.9355 -91.6699 -91.6681 -90.9457 -90.9447
   -90.7055 -90.7052 -52.6501 -52.6474 -52.6243 -52.6217 -52.5503 -52.5473
   -52.5153 -52.5128 -52.5003 -52.4972 -52.4003 -52.3971 -52.2887 -52.2869
   -52.1886 -52.1867 -52.1800 -52.1782 -51.5841 -51.5831 -51.5458 -51.5449
   -51.4661 -51.4651 -51.3729 -51.3726 -51.2670 -51.2667 -51.2102 -51.2099
    -6.4831  -6.4788  -5.6188   0.0087   0.0173   0.7841   4.4172   4.4188
     5.0335   5.6646   5.7358   6.6617   6.6667   6.8850   6.8908   7.1843
     7.1941   7.3536   7.3607   7.5425   7.5799   7.8559   7.8576   7.9306
     8.1172   8.1381   8.4309   8.4329   8.7788   8.7829   9.0570   9.0594
     9.2320   9.2342   9.3847   9.3911   9.6737   9.6754   9.8281   9.8299
     9.9500   9.9514  10.2713  10.2731  10.4840  10.4885  10.6587  10.6613
    10.7834  10.7859  10.8522  10.8562  10.8941  10.8960  11.0934  11.0957
    11.4471  11.4482  11.5027  11.5038  11.6577  11.6592  11.7892  11.7903
    12.1754  12.1786  12.6875  12.6937  13.8290  13.9398  14.4483  15.4015
    15.5352  16.5247  16.8471  17.9938  18.0416  18.2567  18.4049  18.6718
    18.7687  19.3706

     occupation numbers 
     1.0000   1.0000   1.0000   1.0000   1.0000   1.0000   1.0000   1.0000
     1.0000   1.0000   1.0000   1.0000   1.0000   1.0000   1.0000   1.0000
     1.0000   1.0000   1.0000   1.0000   1.0000   1.0000   1.0000   1.0000
     1.0000   1.0000   1.0000   1.0000   1.0000   1.0000   1.0000   1.0000
     1.0000   1.0000   1.0000   1.0000   1.0000   1.0000   1.0000   1.0000
     1.0000   1.0000   1.0000   1.0000   1.0000   1.0000   1.0000   1.0000
     1.0000   1.0000   1.0000   1.0000   1.0000   1.0000   1.0000   1.0000
     1.0000   1.0000   1.0000   1.0000   1.0000   1.0000   1.0000   1.0000
     1.0000   1.0000   1.0000   1.0000   1.0000   1.0000   1.0000   1.0000
     1.0000   1.0000   1.0000   1.0000   1.0000   1.0000   1.0000   1.0000
     1.0000   1.0000   1.0010   1.0010   1.0080   1.0083   1.0291   1.0296
     1.0556   1.0562   1.0708   1.0716   1.0781   1.0784   1.0492   1.0479
     0.5585   0.5566   0.4580   0.4560   0.2229   0.2210   0.0988   0.0980
     0.0029   0.0028   0.0000   0.0000   0.0000   0.0000   0.0000   0.0000
     0.0000   0.0000   0.0000   0.0000   0.0000   0.0000   0.0000   0.0000
     0.0000   0.0000

          k = 0.0500 0.5485 0.0000 ( 10034 PWs)   bands (ev):

   -92.0352 -92.0327 -91.9377 -91.9346 -91.6689 -91.6670 -90.9446 -90.9436
   -90.7045 -90.7042 -52.6548 -52.6521 -52.6246 -52.6220 -52.5522 -52.5492
   -52.5176 -52.5151 -52.5063 -52.5033 -52.4022 -52.3990 -52.2959 -52.2941
   -52.1879 -52.1861 -52.1820 -52.1802 -51.5918 -51.5909 -51.5455 -51.5446
   -51.4682 -51.4673 -51.3796 -51.3793 -51.2690 -51.2687 -51.2098 -51.2095
    -6.2106  -6.2069  -5.3467  -0.4256  -0.4156   0.3524   4.3133   4.3149
     4.9292   6.0368   6.0876   6.7784   6.7813   6.9559   6.9658   7.2652
     7.2678   7.3778   7.3817   7.5394   7.5698   7.8198   7.8207   8.0338
     8.0500   8.3240   8.3384   8.3536   8.7194   8.7256   9.0342   9.0367
     9.3006   9.3025   9.5370   9.5456   9.6502   9.6521   9.8017   9.8035
    10.1131  10.1151  10.2872  10.2890  10.5789  10.5825  10.7385  10.7408
    10.8353  10.8396  10.9192  10.9226  11.0429  11.0443  11.2999  11.3022
    11.4915  11.4924  11.6377  11.6416  11.7644  11.7720  11.9033  11.9138
    12.5549  12.5761  13.3516  13.3845  13.8110  13.9618  14.0729  14.7020
    14.7109  16.2230  16.5540  17.7199  17.7365  18.1262  18.2354  18.4696
    18.5659  19.3014

     occupation numbers 
     1.0000   1.0000   1.0000   1.0000   1.0000   1.0000   1.0000   1.0000
     1.0000   1.0000   1.0000   1.0000   1.0000   1.0000   1.0000   1.0000
     1.0000   1.0000   1.0000   1.0000   1.0000   1.0000   1.0000   1.0000
     1.0000   1.0000   1.0000   1.0000   1.0000   1.0000   1.0000   1.0000
     1.0000   1.0000   1.0000   1.0000   1.0000   1.0000   1.0000   1.0000
     1.0000   1.0000   1.0000   1.0000   1.0000   1.0000   1.0000   1.0000
     1.0000   1.0000   1.0000   1.0000   1.0000   1.0000   1.0000   1.0000
     1.0000   1.0000   1.0000   1.0000   1.0000   1.0000   1.0000   1.0000
     1.0000   1.0000   1.0000   1.0000   1.0000   1.0000   1.0000   1.0000
     1.0000   1.0000   1.0000   1.0000   1.0000   1.0000   1.0000   1.0000
     1.0001   1.0001   1.0011   1.0012   1.0170   1.0175   1.0454   1.0459
     1.0673   1.0682   1.0812   1.0816   1.0711   1.0706   0.8204   0.8165
     0.4780   0.4764   0.2481   0.2430   0.1169   0.1111   0.0417   0.0382
     0.0000   0.0000   0.0000   0.0000   0.0000   0.0000   0.0000   0.0000
     0.0000   0.0000   0.0000   0.0000   0.0000   0.0000   0.0000   0.0000
     0.0000   0.0000

          k = 0.1000 0.1732 0.0000 (  9960 PWs)   bands (ev):

   -92.0521 -92.0496 -91.9527 -91.9496 -91.6846 -91.6827 -90.9613 -90.9604
   -90.7204 -90.7201 -52.6698 -52.6671 -52.5566 -52.5538 -52.5078 -52.5053
   -52.4860 -52.4835 -52.4023 -52.3991 -52.3730 -52.3698 -52.2006 -52.1988
   -52.1815 -52.1797 -52.1520 -52.1502 -51.5601 -51.5591 -51.4687 -51.4677
   -51.4361 -51.4351 -51.2690 -51.2687 -51.2386 -51.2383 -51.2168 -51.2164
    -8.7775  -8.7686  -7.8968   2.4364   2.5564   3.6326   3.6550   4.4833
     4.6425   4.8779   5.1293   5.1898   5.8924   6.0500   6.0768   6.1771
     6.1786   6.8027   6.9606   6.9707   7.3766   7.3778   8.4316   8.4343
     8.6023   8.6047   8.7217   8.7242   8.9639   8.9665   9.0724   9.0742
     9.1860   9.1879   9.2775   9.2797   9.4420   9.4446   9.5235   9.5250
     9.6947   9.6969   9.8037   9.8048   9.8670   9.8682   9.9104   9.9129
    10.0998  10.1030  10.1522  10.1539  10.3741  10.3754  10.4073  10.4089
    10.5633  10.5649  10.5988  10.6057  10.7219  10.7237  11.0343  11.0380
    11.2602  11.2657  11.5548  11.5585  12.0839  12.1030  13.6511  13.7104
    15.0186  15.4290  17.0960  17.3609  18.4638  18.7337  19.7677  20.1139
    20.1202  20.2710

     occupation numbers 
     1.0000   1.0000   1.0000   1.0000   1.0000   1.0000   1.0000   1.0000
     1.0000   1.0000   1.0000   1.0000   1.0000   1.0000   1.0000   1.0000
     1.0000   1.0000   1.0000   1.0000   1.0000   1.0000   1.0000   1.0000
     1.0000   1.0000   1.0000   1.0000   1.0000   1.0000   1.0000   1.0000
     1.0000   1.0000   1.0000   1.0000   1.0000   1.0000   1.0000   1.0000
     1.0000   1.0000   1.0000   1.0000   1.0000   1.0000   1.0000   1.0000
     1.0000   1.0000   1.0000   1.0000   1.0000   1.0000   1.0000   1.0000
[...]
     0.0000   0.0000

          k = 0.3000 0.5774 0.0000 (  9978 PWs)   bands (ev):

   -91.9014 -91.9004 -91.8351 -91.8348 -91.0253 -91.0221 -91.0003 -90.9978
   -90.9804 -90.9786 -52.4948 -52.4941 -52.4893 -52.4885 -52.4764 -52.4755
   -52.4324 -52.4319 -52.4021 -52.4015 -52.2764 -52.2761 -51.6756 -51.6726
   -51.6645 -51.6617 -51.6400 -51.6373 -51.6082 -51.6056 -51.5970 -51.5945
   -51.5853 -51.5830 -51.5481 -51.5459 -51.5353 -51.5332 -51.5308 -51.5286
    -5.5944  -5.5914  -4.7559   0.4423   0.4475   1.1379   1.3922   1.4003
     2.1654   7.2022   7.2523   7.7528   7.7535   7.8453   7.8461   7.9889
     7.9900   8.0947   8.0965   8.1266   8.1280   8.1733   8.1754   8.2605
     8.2630   8.3551   8.3573   8.6958   8.7050   8.8588   8.8887   9.0234
     9.0290   9.0435   9.0899   9.2238   9.2440   9.2447   9.2500   9.2911
     9.3182   9.3479   9.5309   9.5338  10.2176  10.2183  10.3693  10.3704
    10.6240  10.6249  10.7163  10.7187  10.7991  10.8011  10.9864  10.9880
    11.4628  11.4648  11.5445  11.5469  11.8201  11.8337  13.2083  13.6265
    14.2802  15.8240  15.8254  15.9754  15.9772  16.3441  16.3471  16.8693
    16.8743  17.4103  17.4112  18.2040  18.2753  18.3848  18.3937  18.7428
    18.7740  19.0912

     occupation numbers 
     1.0000   1.0000   1.0000   1.0000   1.0000   1.0000   1.0000   1.0000
     1.0000   1.0000   1.0000   1.0000   1.0000   1.0000   1.0000   1.0000
     1.0000   1.0000   1.0000   1.0000   1.0000   1.0000   1.0000   1.0000
     1.0000   1.0000   1.0000   1.0000   1.0000   1.0000   1.0000   1.0000
     1.0000   1.0000   1.0000   1.0000   1.0000   1.0000   1.0000   1.0000
     1.0000   1.0000   1.0000   1.0000   1.0000   1.0000   1.0000   1.0000
     1.0000   1.0000   1.0000   1.0000   1.0000   1.0000   1.0000   1.0000
     1.0000   1.0000   1.0000   1.0000   1.0000   1.0000   1.0000   1.0000
     1.0000   1.0000   1.0000   1.0000   1.0000   1.0000   1.0000   1.0000
     1.0000   1.0000   1.0000   1.0000   1.0000   1.0000   1.0000   1.0000
     1.0000   1.0000   1.0000   1.0000   1.0005   1.0005   1.0027   1.0027
     1.0233   1.0234   1.0405   1.0410   1.0592   1.0596   1.0822   1.0820
     0.5302   0.5266   0.3869   0.3830   0.0795   0.0719   0.0000   0.0000
     0.0000   0.0000   0.0000   0.0000   0.0000   0.0000   0.0000   0.0000
     0.0000   0.0000   0.0000   0.0000   0.0000   0.0000   0.0000   0.0000
     0.0000   0.0000

     the Fermi energy is    11.5363 ev

!    total energy              =   -3510.74033839 Ry
     estimated scf accuracy    <          1.1E-10 Ry
     smearing contrib. (-TS)   =       0.01503387 Ry
     internal energy E=F+TS    =   -3510.75537225 Ry

     The total energy is F=E-TS. E is the sum of the following terms:
     one-electron contribution =  -10661.89058310 Ry
     hartree contribution      =    5420.52324815 Ry
     xc contribution           =    -377.44958548 Ry
     ewald contribution        =    2108.06154818 Ry

     total magnetization       =     0.72 Bohr mag/cell
     absolute magnetization    =     7.50 Bohr mag/cell

     convergence has been achieved in  29 iterations

     negative rho (up, down):  5.377E-06 1.589E-05

     Forces acting on atoms (cartesian axes, Ry/au):

     atom    1 type  1   force =     0.00000000    0.00000000    0.00041614
     atom    2 type  1   force =     0.00000000    0.00000000    0.00000000
     atom    3 type  1   force =     0.00000000   -0.00000000   -0.00041614
     atom    4 type  2   force =     0.00000000    0.00000000    0.00025098
     atom    5 type  2   force =     0.00000000    0.00000000    0.00000000
     atom    6 type  2   force =    -0.00000000    0.00000000   -0.00025098
     atom    7 type  3   force =     0.00000000    0.00000000   -0.00058282
     atom    8 type  3   force =     0.00000000   -0.00000000   -0.00096053
     atom    9 type  3   force =     0.00000000    0.00000000   -0.00084157
     atom   10 type  3   force =    -0.00000000   -0.00000000   -0.00082410
     atom   11 type  3   force =    -0.00000000   -0.00000000   -0.00049348
     atom   12 type  3   force =    -0.00000000   -0.00000000    0.00058282
     atom   13 type  3   force =     0.00000000   -0.00000000    0.00096053
     atom   14 type  3   force =     0.00000000   -0.00000000    0.00084157
     atom   15 type  3   force =     0.00000000    0.00000000    0.00082410
     atom   16 type  3   force =     0.00000000    0.00000000    0.00049348
     The non-local contrib.  to forces
     atom    1 type  1   force =     0.00000000    0.00000000    0.09330475
     atom    2 type  1   force =     0.00000000   -0.00000000    0.00000000
     atom    3 type  1   force =    -0.00000000   -0.00000000   -0.09330475
     atom    4 type  2   force =     0.00000000   -0.00000000    0.51923924
     atom    5 type  2   force =    -0.00000000    0.00000000    0.00000000
     atom    6 type  2   force =     0.00000000    0.00000000   -0.51923924
     atom    7 type  3   force =     0.00000000   -0.00000000   -0.23576652
     atom    8 type  3   force =     0.00000000   -0.00000000   -0.01807187
     atom    9 type  3   force =     0.00000000   -0.00000000    0.01236510
     atom   10 type  3   force =     0.00000000    0.00000000   -0.01613762
     atom   11 type  3   force =     0.00000000   -0.00000000    0.34296769
     atom   12 type  3   force =     0.00000000   -0.00000000    0.23576652
     atom   13 type  3   force =     0.00000000   -0.00000000    0.01807187
     atom   14 type  3   force =    -0.00000000    0.00000000   -0.01236510
     atom   15 type  3   force =     0.00000000    0.00000000    0.01613762
     atom   16 type  3   force =    -0.00000000    0.00000000   -0.34296769
     The ionic contribution  to forces
     atom    1 type  1   force =    -0.00001072    0.00000590  -43.68213188
     atom    2 type  1   force =    -0.00001000    0.00000550    0.00009676
     atom    3 type  1   force =    -0.00001072    0.00000590   43.68174999
     atom    4 type  2   force =     0.00000978   -0.00000538  -73.69955891
     atom    5 type  2   force =     0.00001000   -0.00000550    0.00016178
     atom    6 type  2   force =     0.00000978   -0.00000538   73.69884060
     atom    7 type  3   force =    -0.00000575    0.00000318 -381.36080858
     atom    8 type  3   force =     0.00001095   -0.00000618 -225.84352774
     atom    9 type  3   force =    -0.00001051    0.00000620  -75.69439779
     atom   10 type  3   force =    -0.00000008   -0.00000021   79.10056878
     atom   11 type  3   force =     0.00000633   -0.00000350  231.01221705
     atom   12 type  3   force =    -0.00000575    0.00000318  381.36090622
     atom   13 type  3   force =     0.00001095   -0.00000618  225.84375203
     atom   14 type  3   force =    -0.00001051    0.00000620   75.69456292
     atom   15 type  3   force =    -0.00000008   -0.00000021  -79.10040636
     atom   16 type  3   force =     0.00000633   -0.00000350 -231.01202487
     The local contribution  to forces
     atom    1 type  1   force =     0.00000143   -0.00000083   43.59401185
     atom    2 type  1   force =     0.00000123   -0.00000071   -0.00000511
     atom    3 type  1   force =     0.00000143   -0.00000083  -43.59399858
     atom    4 type  2   force =     0.00004191   -0.00002275   73.18327432
     atom    5 type  2   force =     0.00004043   -0.00002194    0.00011240
     atom    6 type  2   force =     0.00004191   -0.00002275  -73.18371280
     atom    7 type  3   force =     0.00000142   -0.00000082  381.59552131
     atom    8 type  3   force =     0.00106645   -0.00057937  225.86144020
     atom    9 type  3   force =    -0.00103498    0.00063426   75.68212150
     atom   10 type  3   force =    -0.00000000    0.00000000  -79.08487378
     atom   11 type  3   force =     0.00106983   -0.00058116 -231.35625974
     atom   12 type  3   force =     0.00000142   -0.00000082 -381.59504582
     atom   13 type  3   force =     0.00106645   -0.00057937 -225.86000455
     atom   14 type  3   force =    -0.00103498    0.00063426  -75.68116495
     atom   15 type  3   force =    -0.00000000    0.00000000   79.08583100
     atom   16 type  3   force =     0.00106983   -0.00058116  231.35721121
     The core correction contribution to forces
     atom    1 type  1   force =     0.00000001   -0.00000000   -0.00495326
     atom    2 type  1   force =     0.00000001   -0.00000000    0.00000072
     atom    3 type  1   force =     0.00000001   -0.00000000    0.00495104
     atom    4 type  2   force =    -0.00000012    0.00000007   -0.00328048
     atom    5 type  2   force =    -0.00000011    0.00000006   -0.00000012
     atom    6 type  2   force =    -0.00000012    0.00000007    0.00328078
     atom    7 type  3   force =     0.00000000   -0.00000000    0.00074333
     atom    8 type  3   force =     0.00000319   -0.00000173    0.00000769
     atom    9 type  3   force =    -0.00000309    0.00000190   -0.00037694
     atom   10 type  3   force =    -0.00000000    0.00000000    0.00018052
     atom   11 type  3   force =     0.00000320   -0.00000174    0.00116270
     atom   12 type  3   force =     0.00000000   -0.00000000   -0.00074203
     atom   13 type  3   force =     0.00000319   -0.00000173   -0.00000374
     atom   14 type  3   force =    -0.00000309    0.00000190    0.00037957
     atom   15 type  3   force =    -0.00000000    0.00000000   -0.00017787
     atom   16 type  3   force =     0.00000320   -0.00000174   -0.00116008
     The Hubbard contrib.    to forces
     atom    1 type  1   force =     0.00000000    0.00000000    0.00000000
     atom    2 type  1   force =     0.00000000    0.00000000    0.00000000
     atom    3 type  1   force =     0.00000000    0.00000000    0.00000000
     atom    4 type  2   force =     0.00000000    0.00000000    0.00000000
     atom    5 type  2   force =     0.00000000    0.00000000    0.00000000
     atom    6 type  2   force =     0.00000000    0.00000000    0.00000000
     atom    7 type  3   force =     0.00000000    0.00000000    0.00000000
     atom    8 type  3   force =     0.00000000    0.00000000    0.00000000
     atom    9 type  3   force =     0.00000000    0.00000000    0.00000000
     atom   10 type  3   force =     0.00000000    0.00000000    0.00000000
     atom   11 type  3   force =     0.00000000    0.00000000    0.00000000
     atom   12 type  3   force =     0.00000000    0.00000000    0.00000000
     atom   13 type  3   force =     0.00000000    0.00000000    0.00000000
     atom   14 type  3   force =     0.00000000    0.00000000    0.00000000
     atom   15 type  3   force =     0.00000000    0.00000000    0.00000000
     atom   16 type  3   force =     0.00000000    0.00000000    0.00000000
     The SCF correction term to forces
     atom    1 type  1   force =    -0.00000000   -0.00000000   -0.00000074
     atom    2 type  1   force =     0.00000000    0.00000000   -0.00000000
     atom    3 type  1   force =    -0.00000000    0.00000000    0.00000074
     atom    4 type  2   force =     0.00000000   -0.00000000   -0.00000143
     atom    5 type  2   force =    -0.00000000    0.00000000   -0.00000001
     atom    6 type  2   force =     0.00000000   -0.00000000    0.00000143
     atom    7 type  3   force =     0.00000000   -0.00000000    0.00001483
     atom    8 type  3   force =    -0.00000000    0.00000000    0.00002313
     atom    9 type  3   force =     0.00000000   -0.00000000    0.00000874
     atom   10 type  3   force =     0.00000000   -0.00000000   -0.00000081
     atom   11 type  3   force =     0.00000000   -0.00000000   -0.00000801
     atom   12 type  3   force =    -0.00000000   -0.00000000   -0.00001487
     atom   13 type  3   force =    -0.00000000    0.00000000   -0.00002315
     atom   14 type  3   force =     0.00000000   -0.00000000   -0.00000871
     atom   15 type  3   force =     0.00000000   -0.00000000    0.00000089
     atom   16 type  3   force =     0.00000000   -0.00000000    0.00000809

     Total force =     0.002502     Total SCF correction =     0.000042


     Computing stress (Cartesian axis) and pressure


     negative rho (up, down):  5.377E-06 1.589E-05
          total   stress  (Ry/bohr**3)                   (kbar)     P=       -3.64
  -0.00008660   0.00000000   0.00000000          -12.74        0.00        0.00
   0.00000000  -0.00008660   0.00000000            0.00      -12.74        0.00
   0.00000000  -0.00000000   0.00009894            0.00       -0.00       14.55

     kinetic stress (kbar)  39343.85     -0.01      0.00
                               -0.01  39343.84      0.00
                               -0.00     -0.00  39618.36

     local   stress (kbar)**********     -0.00     -0.00
                               -0.00**********      0.00
                               -0.00      0.001013205.09

     nonloc. stress (kbar)  17681.12     -0.00      0.00
                               -0.00  17681.11      0.00
                                0.00      0.00  17615.54

     hartree stress (kbar) 541689.86      0.00      0.00
                                0.00 541689.87     -0.00
                                0.00     -0.00-457697.14

     exc-cor stress (kbar) -11194.52      0.00      0.00
                                0.00 -11194.52     -0.00
                                0.00     -0.00 -11206.45

     corecor stress (kbar)  -2472.72     -0.00      0.00
                               -0.00  -2472.72     -0.00
                                0.00     -0.00  -2461.39

     ewald   stress (kbar) 421194.88     -0.02      0.00
                               -0.02 421194.85     -0.00
                                0.00     -0.00-599059.46

     hubbard stress (kbar)      0.00      0.00      0.00
                                0.00      0.00      0.00
                                0.00      0.00      0.00

     DFT-D   stress (kbar)      0.00      0.00      0.00
                                0.00      0.00      0.00
                                0.00      0.00      0.00

     XDM     stress (kbar)      0.00      0.00      0.00
                                0.00      0.00      0.00
                                0.00      0.00      0.00

     dft-nl  stress (kbar)      0.00      0.00      0.00
                                0.00      0.00      0.00
                                0.00      0.00      0.00

     TS-vdW  stress (kbar)      0.00      0.00      0.00
                                0.00      0.00      0.00
                                0.00      0.00      0.00

     MDB     stress (kbar)      0.00      0.00      0.00
                                0.00      0.00      0.00
                                0.00      0.00      0.00

     3D-RISM stress (kbar)      0.00      0.00      0.00
                                0.00      0.00      0.00
                                0.00      0.00      0.00

     Energy error            =      1.8E-05 Ry
     Gradient error          =      9.6E-04 Ry/Bohr

     bfgs converged in   4 scf cycles and   3 bfgs steps
     (criteria: energy <  1.6E-04 Ry, force <  1.5E-03 Ry/Bohr)

     End of BFGS Geometry Optimization

     Final energy             =   -3510.7403383878 Ry

     File ./out/ni3hnb.bfgs deleted, as requested
Begin final coordinates

ATOMIC_POSITIONS (crystal)
B               -0.0000000000       -0.0000000000        0.5962710873
B                0.0000000000        0.0000000000        0.4999998808
B               -0.0000000000       -0.0000000000        0.4037294194
N                0.3333329856        0.6666669845        0.5928170105
N                0.3333329856        0.6666669845        0.4999998808
N                0.3333329856        0.6666669845        0.4071834962
Ni              -0.0000000000       -0.0000000000        0.1242094799
Ni               0.3333329856        0.6666669845        0.1794315006
Ni               0.6666669843        0.3333329855        0.2364397255
Ni               0.0000000000        0.0000000000        0.2923015904
Ni               0.3333329856        0.6666669845        0.3482814932
Ni              -0.0000000000        0.0000000000        0.8757905052
Ni               0.3333329856        0.6666669845        0.8205684547
Ni               0.6666669843        0.3333329855        0.7635602447
Ni              -0.0000000000       -0.0000000000        0.7076983798
Ni               0.3333329856        0.6666669845        0.6517184770
End final coordinates



     Writing all to output data dir ./out/ni3hnb.save/ :
     XML data file, charge density, pseudopotentials, collected wavefunctions
 
     init_run     :     41.98s CPU     13.89s WALL (       1 calls)
     electrons    : 279065.37s CPU   4854.94s WALL (       4 calls)
     update_pot   :     19.84s CPU      0.42s WALL (       3 calls)
     forces       :    901.29s CPU     20.56s WALL (       4 calls)
     stress       :   3454.90s CPU    101.41s WALL (       4 calls)

     Called by init_run:
     wfcinit      :     23.56s CPU     10.45s WALL (       1 calls)
     potinit      :      9.82s CPU      0.35s WALL (       1 calls)
     hinit0       :      4.00s CPU      2.05s WALL (       1 calls)

     Called by electrons:
     c_bands      : 226981.64s CPU   3871.32s WALL (      85 calls)
     sum_band     :  50494.97s CPU    916.08s WALL (      85 calls)
     v_of_rho     :    362.41s CPU      7.84s WALL (      88 calls)
     v_h          :     18.56s CPU      0.30s WALL (      88 calls)
     v_xc         :    376.79s CPU      8.12s WALL (      96 calls)
     newd         :    351.66s CPU     45.13s WALL (      88 calls)
     mix_rho      :    866.43s CPU     15.93s WALL (      85 calls)

     Called by c_bands:
     init_us_2    :   4473.71s CPU    145.93s WALL (   15664 calls)
     cegterg      : 222260.75s CPU   3739.73s WALL (    7480 calls)

     Called by sum_band:
     sum_band:wei :      1.53s CPU      1.05s WALL (      85 calls)
     sum_band:loo :  50004.18s CPU    843.91s WALL (      85 calls)
     sum_band:buf :   1353.76s CPU     22.98s WALL (    7480 calls)
     sum_band:ini :   2258.99s CPU     75.71s WALL (    7480 calls)
     sum_band:cal :   4330.37s CPU     72.25s WALL (    7480 calls)
     sum_band:bec :    232.11s CPU      4.04s WALL (    7480 calls)
     addusdens    :    450.25s CPU     69.06s WALL (      85 calls)
                                        0.00s GPU  (      85 calls)
     addusd:skk   :     14.13s CPU      1.03s WALL (     255 calls)
                                        0.00s GPU  (     255 calls)

     Called by *egterg:
     cdiaghg      :  11596.62s CPU    282.51s WALL (   20432 calls)
     cegterg:over :   7436.63s CPU    129.16s WALL (   13392 calls)
     cegterg:upda :   5475.92s CPU     88.83s WALL (   13392 calls)
     cegterg:last :  10590.79s CPU    210.10s WALL (   11124 calls)
     h_psi        : 172720.77s CPU   2775.30s WALL (   20872 calls)
     s_psi        :   7978.34s CPU    134.41s WALL (   20872 calls)
     g_psi        :    250.08s CPU      4.47s WALL (   13392 calls)

     Called by h_psi:
     h_psi:calbec :   8446.56s CPU    139.92s WALL (   20872 calls)
     vloc_psi     : 153519.49s CPU   2449.99s WALL (   20872 calls)
     add_vuspsi   :  10089.83s CPU    173.88s WALL (   20872 calls)

     General routines
     calbec       :  15560.34s CPU    259.54s WALL (   34336 calls)
     fft          :    125.13s CPU      2.58s WALL (    2357 calls)
     ffts         :    167.84s CPU      3.01s WALL (   10186 calls)
     fftw         :  85639.60s CPU   1350.78s WALL ( 4736160 calls)
     interpolate  :     27.96s CPU      0.45s WALL (     176 calls)
 
     Parallel routines
 
     PWSCF        :   3d 6h45m CPU      1h23m WALL

 
   This run was terminated on:  12:50: 9   4Sep2025            

=------------------------------------------------------------------------------=
   JOB DONE.
=------------------------------------------------------------------------------=
